# vtk DataFile Version 2.0
heat42.vtk, Created by Freefem++ 
ASCII
DATASET UNSTRUCTURED_GRID
POINTS 27 float
0 1 0
0 0.75 0
0.25 1 0
0.5 1 0
0.16666667 0.66666667 0
0 0.5 0
0.33333333 0.83333333 0
1 1 0
0.75 1 0
0.66666667 0.83333333 0
0.25 0.5 0
0.16666667 0.33333333 0
0 0.25 0
0.5 0.5 0
1 0.75 0
0.83333333 0.66666667 0
0.75 0.5 0
0 0 0
0.33333333 0.16666667 0
0.25 0 0
0.66666667 0.16666667 0
1 0.5 0
0.83333333 0.33333333 0
0.5 0 0
0.75 0 0
1 0.25 0
1 0 0

CELLS 52 192
3 0 1 2
3 17 19 12
3 18 19 23
3 20 18 23
3 11 19 18
3 10 18 13
3 26 25 24
3 22 16 20
3 25 22 20
3 25 21 22
3 21 16 22
3 16 21 15
3 9 16 15
3 13 20 16
3 7 8 14
3 15 14 8
3 6 3 2
3 1 4 2
3 13 9 6
3 16 9 13
3 14 15 21
3 15 8 9
3 8 3 9
3 6 9 3
3 11 18 10
3 12 11 5
3 12 19 11
3 20 24 25
3 18 20 13
3 23 24 20
3 5 10 4
3 10 13 6
3 4 10 6
3 2 4 6
3 1 5 4
3 5 11 10
2 0 1
2 1 5
2 5 12
2 12 17
2 7 8
2 8 3
2 3 2
2 2 0
2 26 25
2 25 21
2 21 14
2 14 7
2 17 19
2 19 23
2 23 24
2 24 26

CELL_TYPES 52
5 5 5 5 5 5 5 5 5 5 5 5 5 5 5 5 5 5 5 5 5 5 5 5 5 5 5 5 5 5 5 5 5 5 5 5 3 3 3 3 3 3 3 3 3 3 3 3 3 3 3 3 
CELL_DATA 52
Scalars  Label int 1
LOOKUP_TABLE FreeFempp_table
0
0
0
0
0
0
0
0
0
0
0
0
0
0
0
0
0
0
0
0
0
0
0
0
0
0
0
0
0
0
0
0
0
0
0
0
4
4
4
4
3
3
3
3
2
2
2
2
1
1
1
1

LOOKUP_TABLE FreeFempp_table 5
1.00000000 0.00000000 0.00000000 1.00000000
1.00000000 1.00000000 0.00000000 1.00000000
1.00000000 0.00000000 1.00000000 1.00000000
0.00000000 1.00000000 0.00000000 1.00000000
0.00000000 1.00000000 1.00000000 1.00000000

FIELD FieldData 1
Temperature 1 52 float
9.19368172e+00 9.18104362e+00 1.16265526e+01 1.42744846e+01 1.00906334e+01 1.16573181e+01 2.68678246e+01 2.06815643e+01 2.38334732e+01 2.79016209e+01 2.47497139e+01 2.47163754e+01 2.06684055e+01 1.74669628e+01 2.68279171e+01 2.46262703e+01 1.16454601e+01 9.35391045e+00 1.42757797e+01 1.74871407e+01 2.78682823e+01 2.05783005e+01 1.74293232e+01 1.43080683e+01 1.01461124e+01 8.94515896e+00 9.34302902e+00 2.27996750e+01 1.42497721e+01 1.74414768e+01 9.40374088e+00 1.16631479e+01 1.01544237e+01 1.01044474e+01 8.95053673e+00 9.40125942e+00 9.19368172e+00 8.95053673e+00 8.94515896e+00 9.18104362e+00 2.68279171e+01 1.74293232e+01 1.16454601e+01 9.19368172e+00 2.68678246e+01 2.79016209e+01 2.78682823e+01 2.68279171e+01 9.18104362e+00 1.16265526e+01 1.74414768e+01 2.68678246e+01 
