# vtk DataFile Version 2.0
heat26.vtk, Created by Freefem++ 
ASCII
DATASET UNSTRUCTURED_GRID
POINTS 27 float
0 1 0
0 0.75 0
0.25 1 0
0.5 1 0
0.16666667 0.66666667 0
0 0.5 0
0.33333333 0.83333333 0
1 1 0
0.75 1 0
0.66666667 0.83333333 0
0.25 0.5 0
0.16666667 0.33333333 0
0 0.25 0
0.5 0.5 0
1 0.75 0
0.83333333 0.66666667 0
0.75 0.5 0
0 0 0
0.33333333 0.16666667 0
0.25 0 0
0.66666667 0.16666667 0
1 0.5 0
0.83333333 0.33333333 0
0.5 0 0
0.75 0 0
1 0.25 0
1 0 0

CELLS 52 192
3 0 1 2
3 17 19 12
3 18 19 23
3 20 18 23
3 11 19 18
3 10 18 13
3 26 25 24
3 22 16 20
3 25 22 20
3 25 21 22
3 21 16 22
3 16 21 15
3 9 16 15
3 13 20 16
3 7 8 14
3 15 14 8
3 6 3 2
3 1 4 2
3 13 9 6
3 16 9 13
3 14 15 21
3 15 8 9
3 8 3 9
3 6 9 3
3 11 18 10
3 12 11 5
3 12 19 11
3 20 24 25
3 18 20 13
3 23 24 20
3 5 10 4
3 10 13 6
3 4 10 6
3 2 4 6
3 1 5 4
3 5 11 10
2 0 1
2 1 5
2 5 12
2 12 17
2 7 8
2 8 3
2 3 2
2 2 0
2 26 25
2 25 21
2 21 14
2 14 7
2 17 19
2 19 23
2 23 24
2 24 26

CELL_TYPES 52
5 5 5 5 5 5 5 5 5 5 5 5 5 5 5 5 5 5 5 5 5 5 5 5 5 5 5 5 5 5 5 5 5 5 5 5 3 3 3 3 3 3 3 3 3 3 3 3 3 3 3 3 
CELL_DATA 52
Scalars  Label int 1
LOOKUP_TABLE FreeFempp_table
0
0
0
0
0
0
0
0
0
0
0
0
0
0
0
0
0
0
0
0
0
0
0
0
0
0
0
0
0
0
0
0
0
0
0
0
4
4
4
4
3
3
3
3
2
2
2
2
1
1
1
1

LOOKUP_TABLE FreeFempp_table 5
1.00000000 0.00000000 0.00000000 1.00000000
1.00000000 1.00000000 0.00000000 1.00000000
1.00000000 0.00000000 1.00000000 1.00000000
0.00000000 1.00000000 0.00000000 1.00000000
0.00000000 1.00000000 1.00000000 1.00000000

FIELD FieldData 1
Temperature 1 52 float
3.41948676e+00 3.40505743e+00 5.24553156e+00 7.33904743e+00 4.07129431e+00 5.27359438e+00 1.83266239e+01 1.27074747e+01 1.55845308e+01 1.92640171e+01 1.63869610e+01 1.63490067e+01 1.26926107e+01 9.95837879e+00 1.82812576e+01 1.62474785e+01 5.26720572e+00 3.53663492e+00 7.34997034e+00 9.98147011e+00 1.92260628e+01 1.25910826e+01 9.90749168e+00 7.37751961e+00 4.11819935e+00 3.23872709e+00 3.52420568e+00 1.46471376e+01 7.32020426e+00 9.92105961e+00 3.57778335e+00 5.28026915e+00 4.12770844e+00 4.08709621e+00 3.24486351e+00 3.57494903e+00 3.41948676e+00 3.24486351e+00 3.23872709e+00 3.40505743e+00 1.82812576e+01 9.90749168e+00 5.26720572e+00 3.41948676e+00 1.83266239e+01 1.92640171e+01 1.92260628e+01 1.82812576e+01 3.40505743e+00 5.24553156e+00 9.92105961e+00 1.83266239e+01 
