# vtk DataFile Version 2.0
heat12.vtk, Created by Freefem++ 
ASCII
DATASET UNSTRUCTURED_GRID
POINTS 27 float
0 1 0
0 0.75 0
0.25 1 0
0.5 1 0
0.16666667 0.66666667 0
0 0.5 0
0.33333333 0.83333333 0
1 1 0
0.75 1 0
0.66666667 0.83333333 0
0.25 0.5 0
0.16666667 0.33333333 0
0 0.25 0
0.5 0.5 0
1 0.75 0
0.83333333 0.66666667 0
0.75 0.5 0
0 0 0
0.33333333 0.16666667 0
0.25 0 0
0.66666667 0.16666667 0
1 0.5 0
0.83333333 0.33333333 0
0.5 0 0
0.75 0 0
1 0.25 0
1 0 0

CELLS 52 192
3 0 1 2
3 17 19 12
3 18 19 23
3 20 18 23
3 11 19 18
3 10 18 13
3 26 25 24
3 22 16 20
3 25 22 20
3 25 21 22
3 21 16 22
3 16 21 15
3 9 16 15
3 13 20 16
3 7 8 14
3 15 14 8
3 6 3 2
3 1 4 2
3 13 9 6
3 16 9 13
3 14 15 21
3 15 8 9
3 8 3 9
3 6 9 3
3 11 18 10
3 12 11 5
3 12 19 11
3 20 24 25
3 18 20 13
3 23 24 20
3 5 10 4
3 10 13 6
3 4 10 6
3 2 4 6
3 1 5 4
3 5 11 10
2 0 1
2 1 5
2 5 12
2 12 17
2 7 8
2 8 3
2 3 2
2 2 0
2 26 25
2 25 21
2 21 14
2 14 7
2 17 19
2 19 23
2 23 24
2 24 26

CELL_TYPES 52
5 5 5 5 5 5 5 5 5 5 5 5 5 5 5 5 5 5 5 5 5 5 5 5 5 5 5 5 5 5 5 5 5 5 5 5 3 3 3 3 3 3 3 3 3 3 3 3 3 3 3 3 
CELL_DATA 52
Scalars  Label int 1
LOOKUP_TABLE FreeFempp_table
0
0
0
0
0
0
0
0
0
0
0
0
0
0
0
0
0
0
0
0
0
0
0
0
0
0
0
0
0
0
0
0
0
0
0
0
4
4
4
4
3
3
3
3
2
2
2
2
1
1
1
1

LOOKUP_TABLE FreeFempp_table 5
1.00000000 0.00000000 0.00000000 1.00000000
1.00000000 1.00000000 0.00000000 1.00000000
1.00000000 0.00000000 1.00000000 1.00000000
0.00000000 1.00000000 0.00000000 1.00000000
0.00000000 1.00000000 1.00000000 1.00000000

FIELD FieldData 1
Temperature 1 52 float
4.34189647e-01 4.20143694e-01 1.14914656e+00 2.15234470e+00 6.53770030e-01 1.17192400e+00 9.33966351e+00 5.27738285e+00 7.38182306e+00 1.00143909e+01 7.90995026e+00 7.86969185e+00 5.26349258e+00 3.58255816e+00 9.29259872e+00 7.76230621e+00 1.17314720e+00 4.75298226e-01 2.18087602e+00 3.60892630e+00 9.97413254e+00 5.15610695e+00 3.51691794e+00 2.19625330e+00 6.81643248e-01 3.72417688e-01 4.62997019e-01 6.70709562e+00 2.14724874e+00 3.52733302e+00 4.97865856e-01 1.17918313e+00 6.91720426e-01 6.70307279e-01 3.78258795e-01 4.95047748e-01 4.34189647e-01 3.78258795e-01 3.72417688e-01 4.20143694e-01 9.29259872e+00 3.51691794e+00 1.17314720e+00 4.34189647e-01 9.33966351e+00 1.00143909e+01 9.97413254e+00 9.29259872e+00 4.20143694e-01 1.14914656e+00 3.52733302e+00 9.33966351e+00 
