# vtk DataFile Version 2.0
heat43.vtk, Created by Freefem++ 
ASCII
DATASET UNSTRUCTURED_GRID
POINTS 27 float
0 1 0
0 0.75 0
0.25 1 0
0.5 1 0
0.16666667 0.66666667 0
0 0.5 0
0.33333333 0.83333333 0
1 1 0
0.75 1 0
0.66666667 0.83333333 0
0.25 0.5 0
0.16666667 0.33333333 0
0 0.25 0
0.5 0.5 0
1 0.75 0
0.83333333 0.66666667 0
0.75 0.5 0
0 0 0
0.33333333 0.16666667 0
0.25 0 0
0.66666667 0.16666667 0
1 0.5 0
0.83333333 0.33333333 0
0.5 0 0
0.75 0 0
1 0.25 0
1 0 0

CELLS 52 192
3 0 1 2
3 17 19 12
3 18 19 23
3 20 18 23
3 11 19 18
3 10 18 13
3 26 25 24
3 22 16 20
3 25 22 20
3 25 21 22
3 21 16 22
3 16 21 15
3 9 16 15
3 13 20 16
3 7 8 14
3 15 14 8
3 6 3 2
3 1 4 2
3 13 9 6
3 16 9 13
3 14 15 21
3 15 8 9
3 8 3 9
3 6 9 3
3 11 18 10
3 12 11 5
3 12 19 11
3 20 24 25
3 18 20 13
3 23 24 20
3 5 10 4
3 10 13 6
3 4 10 6
3 2 4 6
3 1 5 4
3 5 11 10
2 0 1
2 1 5
2 5 12
2 12 17
2 7 8
2 8 3
2 3 2
2 2 0
2 26 25
2 25 21
2 21 14
2 14 7
2 17 19
2 19 23
2 23 24
2 24 26

CELL_TYPES 52
5 5 5 5 5 5 5 5 5 5 5 5 5 5 5 5 5 5 5 5 5 5 5 5 5 5 5 5 5 5 5 5 5 5 5 5 3 3 3 3 3 3 3 3 3 3 3 3 3 3 3 3 
CELL_DATA 52
Scalars  Label int 1
LOOKUP_TABLE FreeFempp_table
0
0
0
0
0
0
0
0
0
0
0
0
0
0
0
0
0
0
0
0
0
0
0
0
0
0
0
0
0
0
0
0
0
0
0
0
4
4
4
4
3
3
3
3
2
2
2
2
1
1
1
1

LOOKUP_TABLE FreeFempp_table 5
1.00000000 0.00000000 0.00000000 1.00000000
1.00000000 1.00000000 0.00000000 1.00000000
1.00000000 0.00000000 1.00000000 1.00000000
0.00000000 1.00000000 0.00000000 1.00000000
0.00000000 1.00000000 1.00000000 1.00000000

FIELD FieldData 1
Temperature 1 52 float
9.60030270e+00 9.58777142e+00 1.20533180e+01 1.47185640e+01 1.05056133e+01 1.20841293e+01 2.73498020e+01 2.11544609e+01 2.43103924e+01 2.83851891e+01 2.52292576e+01 2.51962013e+01 2.11414108e+01 1.79278049e+01 2.73102322e+01 2.51068077e+01 1.20720654e+01 9.76199532e+00 1.47194519e+01 1.79478130e+01 2.83521309e+01 2.10520191e+01 1.78908291e+01 1.47518616e+01 1.05613241e+01 9.34946537e+00 9.75120544e+00 2.32750053e+01 1.46936646e+01 1.79028816e+01 9.81207371e+00 1.20899096e+01 1.05695658e+01 1.05193110e+01 9.35479832e+00 9.80961323e+00 9.60030270e+00 9.35479832e+00 9.34946537e+00 9.58777142e+00 2.73102322e+01 1.78908291e+01 1.20720654e+01 9.60030270e+00 2.73498020e+01 2.83851891e+01 2.83521309e+01 2.73102322e+01 9.58777142e+00 1.20533180e+01 1.79028816e+01 2.73498020e+01 
