# vtk DataFile Version 2.0
heat59.vtk, Created by Freefem++ 
ASCII
DATASET UNSTRUCTURED_GRID
POINTS 27 float
0 1 0
0 0.75 0
0.25 1 0
0.5 1 0
0.16666667 0.66666667 0
0 0.5 0
0.33333333 0.83333333 0
1 1 0
0.75 1 0
0.66666667 0.83333333 0
0.25 0.5 0
0.16666667 0.33333333 0
0 0.25 0
0.5 0.5 0
1 0.75 0
0.83333333 0.66666667 0
0.75 0.5 0
0 0 0
0.33333333 0.16666667 0
0.25 0 0
0.66666667 0.16666667 0
1 0.5 0
0.83333333 0.33333333 0
0.5 0 0
0.75 0 0
1 0.25 0
1 0 0

CELLS 52 192
3 0 1 2
3 17 19 12
3 18 19 23
3 20 18 23
3 11 19 18
3 10 18 13
3 26 25 24
3 22 16 20
3 25 22 20
3 25 21 22
3 21 16 22
3 16 21 15
3 9 16 15
3 13 20 16
3 7 8 14
3 15 14 8
3 6 3 2
3 1 4 2
3 13 9 6
3 16 9 13
3 14 15 21
3 15 8 9
3 8 3 9
3 6 9 3
3 11 18 10
3 12 11 5
3 12 19 11
3 20 24 25
3 18 20 13
3 23 24 20
3 5 10 4
3 10 13 6
3 4 10 6
3 2 4 6
3 1 5 4
3 5 11 10
2 0 1
2 1 5
2 5 12
2 12 17
2 7 8
2 8 3
2 3 2
2 2 0
2 26 25
2 25 21
2 21 14
2 14 7
2 17 19
2 19 23
2 23 24
2 24 26

CELL_TYPES 52
5 5 5 5 5 5 5 5 5 5 5 5 5 5 5 5 5 5 5 5 5 5 5 5 5 5 5 5 5 5 5 5 5 5 5 5 3 3 3 3 3 3 3 3 3 3 3 3 3 3 3 3 
CELL_DATA 52
Scalars  Label int 1
LOOKUP_TABLE FreeFempp_table
0
0
0
0
0
0
0
0
0
0
0
0
0
0
0
0
0
0
0
0
0
0
0
0
0
0
0
0
0
0
0
0
0
0
0
0
4
4
4
4
3
3
3
3
2
2
2
2
1
1
1
1

LOOKUP_TABLE FreeFempp_table 5
1.00000000 0.00000000 0.00000000 1.00000000
1.00000000 1.00000000 0.00000000 1.00000000
1.00000000 0.00000000 1.00000000 1.00000000
0.00000000 1.00000000 0.00000000 1.00000000
0.00000000 1.00000000 1.00000000 1.00000000

FIELD FieldData 1
Temperature 1 52 float
1.64018764e+01 1.63909492e+01 1.89923038e+01 2.17561703e+01 1.73681507e+01 1.90225601e+01 3.43658257e+01 2.82863064e+01 3.13765583e+01 3.53826294e+01 3.22923775e+01 3.22635918e+01 2.82749405e+01 2.50389233e+01 3.43313637e+01 3.21852074e+01 1.90086403e+01 1.65741310e+01 2.17525501e+01 2.50563450e+01 3.53538437e+01 2.81965561e+01 2.50105801e+01 2.17851715e+01 1.74244862e+01 1.61341515e+01 1.65647240e+01 3.03597527e+01 2.17300911e+01 2.50210800e+01 1.66252041e+01 1.90275993e+01 1.74316692e+01 1.73800907e+01 1.61388016e+01 1.66230583e+01 1.64018764e+01 1.61388016e+01 1.61341515e+01 1.63909492e+01 3.43313637e+01 2.50105801e+01 1.90086403e+01 1.64018764e+01 3.43658257e+01 3.53826294e+01 3.53538437e+01 3.43313637e+01 1.63909492e+01 1.89923038e+01 2.50210800e+01 3.43658257e+01 
