# vtk DataFile Version 2.0
heat22.vtk, Created by Freefem++ 
ASCII
DATASET UNSTRUCTURED_GRID
POINTS 27 float
0 1 0
0 0.75 0
0.25 1 0
0.5 1 0
0.16666667 0.66666667 0
0 0.5 0
0.33333333 0.83333333 0
1 1 0
0.75 1 0
0.66666667 0.83333333 0
0.25 0.5 0
0.16666667 0.33333333 0
0 0.25 0
0.5 0.5 0
1 0.75 0
0.83333333 0.66666667 0
0.75 0.5 0
0 0 0
0.33333333 0.16666667 0
0.25 0 0
0.66666667 0.16666667 0
1 0.5 0
0.83333333 0.33333333 0
0.5 0 0
0.75 0 0
1 0.25 0
1 0 0

CELLS 52 192
3 0 1 2
3 17 19 12
3 18 19 23
3 20 18 23
3 11 19 18
3 10 18 13
3 26 25 24
3 22 16 20
3 25 22 20
3 25 21 22
3 21 16 22
3 16 21 15
3 9 16 15
3 13 20 16
3 7 8 14
3 15 14 8
3 6 3 2
3 1 4 2
3 13 9 6
3 16 9 13
3 14 15 21
3 15 8 9
3 8 3 9
3 6 9 3
3 11 18 10
3 12 11 5
3 12 19 11
3 20 24 25
3 18 20 13
3 23 24 20
3 5 10 4
3 10 13 6
3 4 10 6
3 2 4 6
3 1 5 4
3 5 11 10
2 0 1
2 1 5
2 5 12
2 12 17
2 7 8
2 8 3
2 3 2
2 2 0
2 26 25
2 25 21
2 21 14
2 14 7
2 17 19
2 19 23
2 23 24
2 24 26

CELL_TYPES 52
5 5 5 5 5 5 5 5 5 5 5 5 5 5 5 5 5 5 5 5 5 5 5 5 5 5 5 5 5 5 5 5 5 5 5 5 3 3 3 3 3 3 3 3 3 3 3 3 3 3 3 3 
CELL_DATA 52
Scalars  Label int 1
LOOKUP_TABLE FreeFempp_table
0
0
0
0
0
0
0
0
0
0
0
0
0
0
0
0
0
0
0
0
0
0
0
0
0
0
0
0
0
0
0
0
0
0
0
0
4
4
4
4
3
3
3
3
2
2
2
2
1
1
1
1

LOOKUP_TABLE FreeFempp_table 5
1.00000000 0.00000000 0.00000000 1.00000000
1.00000000 1.00000000 0.00000000 1.00000000
1.00000000 0.00000000 1.00000000 1.00000000
0.00000000 1.00000000 0.00000000 1.00000000
0.00000000 1.00000000 1.00000000 1.00000000

FIELD FieldData 1
Temperature 1 52 float
2.30499935e+00 2.29017663e+00 3.87315607e+00 5.72258472e+00 2.85440612e+00 3.89986634e+00 1.59172506e+01 1.06078320e+01 1.33322001e+01 1.68022900e+01 1.40779219e+01 1.40388784e+01 1.05926838e+01 8.08151054e+00 1.58706636e+01 1.39347239e+01 3.89558578e+00 2.40412450e+00 5.73721743e+00 8.10540581e+00 1.67632465e+01 1.04885292e+01 8.02645969e+00 5.76242638e+00 2.89727736e+00 2.15248895e+00 2.39134526e+00 1.24471607e+01 5.70642376e+00 8.04010391e+00 2.44127202e+00 3.90676451e+00 2.90709019e+00 2.87070251e+00 2.15878463e+00 2.43835735e+00 2.30499935e+00 2.15878463e+00 2.15248895e+00 2.29017663e+00 1.58706636e+01 8.02645969e+00 3.89558578e+00 2.30499935e+00 1.59172506e+01 1.68022900e+01 1.67632465e+01 1.58706636e+01 2.29017663e+00 3.87315607e+00 8.04010391e+00 1.59172506e+01 
