# vtk DataFile Version 2.0
heat40.vtk, Created by Freefem++ 
ASCII
DATASET UNSTRUCTURED_GRID
POINTS 27 float
0 1 0
0 0.75 0
0.25 1 0
0.5 1 0
0.16666667 0.66666667 0
0 0.5 0
0.33333333 0.83333333 0
1 1 0
0.75 1 0
0.66666667 0.83333333 0
0.25 0.5 0
0.16666667 0.33333333 0
0 0.25 0
0.5 0.5 0
1 0.75 0
0.83333333 0.66666667 0
0.75 0.5 0
0 0 0
0.33333333 0.16666667 0
0.25 0 0
0.66666667 0.16666667 0
1 0.5 0
0.83333333 0.33333333 0
0.5 0 0
0.75 0 0
1 0.25 0
1 0 0

CELLS 52 192
3 0 1 2
3 17 19 12
3 18 19 23
3 20 18 23
3 11 19 18
3 10 18 13
3 26 25 24
3 22 16 20
3 25 22 20
3 25 21 22
3 21 16 22
3 16 21 15
3 9 16 15
3 13 20 16
3 7 8 14
3 15 14 8
3 6 3 2
3 1 4 2
3 13 9 6
3 16 9 13
3 14 15 21
3 15 8 9
3 8 3 9
3 6 9 3
3 11 18 10
3 12 11 5
3 12 19 11
3 20 24 25
3 18 20 13
3 23 24 20
3 5 10 4
3 10 13 6
3 4 10 6
3 2 4 6
3 1 5 4
3 5 11 10
2 0 1
2 1 5
2 5 12
2 12 17
2 7 8
2 8 3
2 3 2
2 2 0
2 26 25
2 25 21
2 21 14
2 14 7
2 17 19
2 19 23
2 23 24
2 24 26

CELL_TYPES 52
5 5 5 5 5 5 5 5 5 5 5 5 5 5 5 5 5 5 5 5 5 5 5 5 5 5 5 5 5 5 5 5 5 5 5 5 3 3 3 3 3 3 3 3 3 3 3 3 3 3 3 3 
CELL_DATA 52
Scalars  Label int 1
LOOKUP_TABLE FreeFempp_table
0
0
0
0
0
0
0
0
0
0
0
0
0
0
0
0
0
0
0
0
0
0
0
0
0
0
0
0
0
0
0
0
0
0
0
0
4
4
4
4
3
3
3
3
2
2
2
2
1
1
1
1

LOOKUP_TABLE FreeFempp_table 5
1.00000000 0.00000000 0.00000000 1.00000000
1.00000000 1.00000000 0.00000000 1.00000000
1.00000000 0.00000000 1.00000000 1.00000000
0.00000000 1.00000000 0.00000000 1.00000000
0.00000000 1.00000000 1.00000000 1.00000000

FIELD FieldData 1
Temperature 1 52 float
8.39173603e+00 8.37888241e+00 1.07791100e+01 1.33873672e+01 9.26992226e+00 1.08097467e+01 2.58869495e+01 1.97263775e+01 2.28664894e+01 2.69163055e+01 2.37761936e+01 2.37422886e+01 1.97129974e+01 1.65407925e+01 2.58463669e+01 2.36507530e+01 1.07983418e+01 8.54867744e+00 1.33895311e+01 1.65613174e+01 2.68824005e+01 1.96214619e+01 1.65017776e+01 1.34215260e+01 9.32484913e+00 8.14840698e+00 8.53761005e+00 2.18371353e+01 1.33630772e+01 1.65141315e+01 8.59792519e+00 1.08156757e+01 9.33330345e+00 9.28397274e+00 8.15387726e+00 8.59540176e+00 8.39173603e+00 8.15387726e+00 8.14840698e+00 8.37888241e+00 2.58463669e+01 1.65017776e+01 1.07983418e+01 8.39173603e+00 2.58869495e+01 2.69163055e+01 2.68824005e+01 2.58463669e+01 8.37888241e+00 1.07791100e+01 1.65141315e+01 2.58869495e+01 
