# vtk DataFile Version 2.0
heat81.vtk, Created by Freefem++ 
ASCII
DATASET UNSTRUCTURED_GRID
POINTS 27 float
0 1 0
0 0.75 0
0.25 1 0
0.5 1 0
0.16666667 0.66666667 0
0 0.5 0
0.33333333 0.83333333 0
1 1 0
0.75 1 0
0.66666667 0.83333333 0
0.25 0.5 0
0.16666667 0.33333333 0
0 0.25 0
0.5 0.5 0
1 0.75 0
0.83333333 0.66666667 0
0.75 0.5 0
0 0 0
0.33333333 0.16666667 0
0.25 0 0
0.66666667 0.16666667 0
1 0.5 0
0.83333333 0.33333333 0
0.5 0 0
0.75 0 0
1 0.25 0
1 0 0

CELLS 52 192
3 0 1 2
3 17 19 12
3 18 19 23
3 20 18 23
3 11 19 18
3 10 18 13
3 26 25 24
3 22 16 20
3 25 22 20
3 25 21 22
3 21 16 22
3 16 21 15
3 9 16 15
3 13 20 16
3 7 8 14
3 15 14 8
3 6 3 2
3 1 4 2
3 13 9 6
3 16 9 13
3 14 15 21
3 15 8 9
3 8 3 9
3 6 9 3
3 11 18 10
3 12 11 5
3 12 19 11
3 20 24 25
3 18 20 13
3 23 24 20
3 5 10 4
3 10 13 6
3 4 10 6
3 2 4 6
3 1 5 4
3 5 11 10
2 0 1
2 1 5
2 5 12
2 12 17
2 7 8
2 8 3
2 3 2
2 2 0
2 26 25
2 25 21
2 21 14
2 14 7
2 17 19
2 19 23
2 23 24
2 24 26

CELL_TYPES 52
5 5 5 5 5 5 5 5 5 5 5 5 5 5 5 5 5 5 5 5 5 5 5 5 5 5 5 5 5 5 5 5 5 5 5 5 3 3 3 3 3 3 3 3 3 3 3 3 3 3 3 3 
CELL_DATA 52
Scalars  Label int 1
LOOKUP_TABLE FreeFempp_table
0
0
0
0
0
0
0
0
0
0
0
0
0
0
0
0
0
0
0
0
0
0
0
0
0
0
0
0
0
0
0
0
0
0
0
0
4
4
4
4
3
3
3
3
2
2
2
2
1
1
1
1

LOOKUP_TABLE FreeFempp_table 5
1.00000000 0.00000000 0.00000000 1.00000000
1.00000000 1.00000000 0.00000000 1.00000000
1.00000000 0.00000000 1.00000000 1.00000000
0.00000000 1.00000000 0.00000000 1.00000000
0.00000000 1.00000000 1.00000000 1.00000000

FIELD FieldData 1
Temperature 1 52 float
2.57464561e+01 2.57374401e+01 2.81882591e+01 3.07650356e+01 2.66630554e+01 2.82155094e+01 4.22416115e+01 3.67708282e+01 3.95476265e+01 4.31570702e+01 4.03802719e+01 4.03565712e+01 3.67614784e+01 3.37997055e+01 4.22132416e+01 4.02916679e+01 2.82017307e+01 2.59096756e+01 3.07590885e+01 3.38140564e+01 4.31333733e+01 3.66965752e+01 3.37789993e+01 3.07889328e+01 2.67147579e+01 2.54924793e+01 2.59019146e+01 3.86321678e+01 3.07405853e+01 3.37876205e+01 2.59567928e+01 2.82196636e+01 2.67206821e+01 2.66729031e+01 2.54963169e+01 2.59550228e+01 2.57464561e+01 2.54963169e+01 2.54924793e+01 2.57374401e+01 4.22132416e+01 3.37789993e+01 2.82017307e+01 2.57464561e+01 4.22416115e+01 4.31570702e+01 4.31333733e+01 4.22132416e+01 2.57374401e+01 2.81882591e+01 3.37876205e+01 4.22416115e+01 
