# vtk DataFile Version 2.0
heat25.vtk, Created by Freefem++ 
ASCII
DATASET UNSTRUCTURED_GRID
POINTS 27 float
0 1 0
0 0.75 0
0.25 1 0
0.5 1 0
0.16666667 0.66666667 0
0 0.5 0
0.33333333 0.83333333 0
1 1 0
0.75 1 0
0.66666667 0.83333333 0
0.25 0.5 0
0.16666667 0.33333333 0
0 0.25 0
0.5 0.5 0
1 0.75 0
0.83333333 0.66666667 0
0.75 0.5 0
0 0 0
0.33333333 0.16666667 0
0.25 0 0
0.66666667 0.16666667 0
1 0.5 0
0.83333333 0.33333333 0
0.5 0 0
0.75 0 0
1 0.25 0
1 0 0

CELLS 52 192
3 0 1 2
3 17 19 12
3 18 19 23
3 20 18 23
3 11 19 18
3 10 18 13
3 26 25 24
3 22 16 20
3 25 22 20
3 25 21 22
3 21 16 22
3 16 21 15
3 9 16 15
3 13 20 16
3 7 8 14
3 15 14 8
3 6 3 2
3 1 4 2
3 13 9 6
3 16 9 13
3 14 15 21
3 15 8 9
3 8 3 9
3 6 9 3
3 11 18 10
3 12 11 5
3 12 19 11
3 20 24 25
3 18 20 13
3 23 24 20
3 5 10 4
3 10 13 6
3 4 10 6
3 2 4 6
3 1 5 4
3 5 11 10
2 0 1
2 1 5
2 5 12
2 12 17
2 7 8
2 8 3
2 3 2
2 2 0
2 26 25
2 25 21
2 21 14
2 14 7
2 17 19
2 19 23
2 23 24
2 24 26

CELL_TYPES 52
5 5 5 5 5 5 5 5 5 5 5 5 5 5 5 5 5 5 5 5 5 5 5 5 5 5 5 5 5 5 5 5 5 5 5 5 3 3 3 3 3 3 3 3 3 3 3 3 3 3 3 3 
CELL_DATA 52
Scalars  Label int 1
LOOKUP_TABLE FreeFempp_table
0
0
0
0
0
0
0
0
0
0
0
0
0
0
0
0
0
0
0
0
0
0
0
0
0
0
0
0
0
0
0
0
0
0
0
0
4
4
4
4
3
3
3
3
2
2
2
2
1
1
1
1

LOOKUP_TABLE FreeFempp_table 5
1.00000000 0.00000000 0.00000000 1.00000000
1.00000000 1.00000000 0.00000000 1.00000000
1.00000000 0.00000000 1.00000000 1.00000000
0.00000000 1.00000000 0.00000000 1.00000000
0.00000000 1.00000000 1.00000000 1.00000000

FIELD FieldData 1
Temperature 1 52 float
3.12455678e+00 3.11002064e+00 4.89076471e+00 6.92798519e+00 3.75252962e+00 4.91851473e+00 1.77355309e+01 1.21858606e+01 1.50287304e+01 1.86611729e+01 1.58183041e+01 1.57800674e+01 1.21709118e+01 9.48753166e+00 1.76898441e+01 1.56778603e+01 4.91262579e+00 3.23751020e+00 6.93976974e+00 9.51081944e+00 1.86229362e+01 1.20687046e+01 9.43563366e+00 6.96679163e+00 3.79851389e+00 2.95037532e+00 3.22498703e+00 1.41030874e+01 6.90975142e+00 9.44924545e+00 3.27774262e+00 4.92524529e+00 3.80810022e+00 3.76845884e+00 2.95655584e+00 3.27488685e+00 3.12455678e+00 2.95655584e+00 2.95037532e+00 3.11002064e+00 1.76898441e+01 9.43563366e+00 4.91262579e+00 3.12455678e+00 1.77355309e+01 1.86611729e+01 1.86229362e+01 1.76898441e+01 3.11002064e+00 4.89076471e+00 9.44924545e+00 1.77355309e+01 
