# vtk DataFile Version 2.0
heat4.vtk, Created by Freefem++ 
ASCII
DATASET UNSTRUCTURED_GRID
POINTS 27 float
0 1 0
0 0.75 0
0.25 1 0
0.5 1 0
0.16666667 0.66666667 0
0 0.5 0
0.33333333 0.83333333 0
1 1 0
0.75 1 0
0.66666667 0.83333333 0
0.25 0.5 0
0.16666667 0.33333333 0
0 0.25 0
0.5 0.5 0
1 0.75 0
0.83333333 0.66666667 0
0.75 0.5 0
0 0 0
0.33333333 0.16666667 0
0.25 0 0
0.66666667 0.16666667 0
1 0.5 0
0.83333333 0.33333333 0
0.5 0 0
0.75 0 0
1 0.25 0
1 0 0

CELLS 52 192
3 0 1 2
3 17 19 12
3 18 19 23
3 20 18 23
3 11 19 18
3 10 18 13
3 26 25 24
3 22 16 20
3 25 22 20
3 25 21 22
3 21 16 22
3 16 21 15
3 9 16 15
3 13 20 16
3 7 8 14
3 15 14 8
3 6 3 2
3 1 4 2
3 13 9 6
3 16 9 13
3 14 15 21
3 15 8 9
3 8 3 9
3 6 9 3
3 11 18 10
3 12 11 5
3 12 19 11
3 20 24 25
3 18 20 13
3 23 24 20
3 5 10 4
3 10 13 6
3 4 10 6
3 2 4 6
3 1 5 4
3 5 11 10
2 0 1
2 1 5
2 5 12
2 12 17
2 7 8
2 8 3
2 3 2
2 2 0
2 26 25
2 25 21
2 21 14
2 14 7
2 17 19
2 19 23
2 23 24
2 24 26

CELL_TYPES 52
5 5 5 5 5 5 5 5 5 5 5 5 5 5 5 5 5 5 5 5 5 5 5 5 5 5 5 5 5 5 5 5 5 5 5 5 3 3 3 3 3 3 3 3 3 3 3 3 3 3 3 3 
CELL_DATA 52
Scalars  Label int 1
LOOKUP_TABLE FreeFempp_table
0
0
0
0
0
0
0
0
0
0
0
0
0
0
0
0
0
0
0
0
0
0
0
0
0
0
0
0
0
0
0
0
0
0
0
0
4
4
4
4
3
3
3
3
2
2
2
2
1
1
1
1

LOOKUP_TABLE FreeFempp_table 5
1.00000000 0.00000000 0.00000000 1.00000000
1.00000000 1.00000000 0.00000000 1.00000000
1.00000000 0.00000000 1.00000000 1.00000000
0.00000000 1.00000000 0.00000000 1.00000000
0.00000000 1.00000000 1.00000000 1.00000000

FIELD FieldData 1
Temperature 1 52 float
5.98559994e-03 1.38024637e-03 6.47418275e-02 2.51323581e-01 8.87651090e-03 8.46654102e-02 3.53885126e+00 1.33464944e+00 2.50069332e+00 3.90016341e+00 2.73411942e+00 2.70245194e+00 1.33231676e+00 6.78590834e-01 3.50692487e+00 2.61351585e+00 8.38758945e-02 8.56872275e-03 2.96851903e-01 7.07925737e-01 3.86849570e+00 1.24338067e+00 6.18915915e-01 2.96778083e-01 1.75983552e-02 3.81441298e-03 3.98018677e-03 2.13938117e+00 2.62525320e-01 6.10379517e-01 1.45795848e-02 8.96571204e-02 2.36794837e-02 1.79720577e-02 5.38853183e-03 1.34901647e-02 5.98559994e-03 5.38853183e-03 3.81441298e-03 1.38024637e-03 3.50692487e+00 6.18915915e-01 8.38758945e-02 5.98559994e-03 3.53885126e+00 3.90016341e+00 3.86849570e+00 3.50692487e+00 1.38024637e-03 6.47418275e-02 6.10379517e-01 3.53885126e+00 
