# vtk DataFile Version 2.0
heat10.vtk, Created by Freefem++ 
ASCII
DATASET UNSTRUCTURED_GRID
POINTS 27 float
0 1 0
0 0.75 0
0.25 1 0
0.5 1 0
0.16666667 0.66666667 0
0 0.5 0
0.33333333 0.83333333 0
1 1 0
0.75 1 0
0.66666667 0.83333333 0
0.25 0.5 0
0.16666667 0.33333333 0
0 0.25 0
0.5 0.5 0
1 0.75 0
0.83333333 0.66666667 0
0.75 0.5 0
0 0 0
0.33333333 0.16666667 0
0.25 0 0
0.66666667 0.16666667 0
1 0.5 0
0.83333333 0.33333333 0
0.5 0 0
0.75 0 0
1 0.25 0
1 0 0

CELLS 52 192
3 0 1 2
3 17 19 12
3 18 19 23
3 20 18 23
3 11 19 18
3 10 18 13
3 26 25 24
3 22 16 20
3 25 22 20
3 25 21 22
3 21 16 22
3 16 21 15
3 9 16 15
3 13 20 16
3 7 8 14
3 15 14 8
3 6 3 2
3 1 4 2
3 13 9 6
3 16 9 13
3 14 15 21
3 15 8 9
3 8 3 9
3 6 9 3
3 11 18 10
3 12 11 5
3 12 19 11
3 20 24 25
3 18 20 13
3 23 24 20
3 5 10 4
3 10 13 6
3 4 10 6
3 2 4 6
3 1 5 4
3 5 11 10
2 0 1
2 1 5
2 5 12
2 12 17
2 7 8
2 8 3
2 3 2
2 2 0
2 26 25
2 25 21
2 21 14
2 14 7
2 17 19
2 19 23
2 23 24
2 24 26

CELL_TYPES 52
5 5 5 5 5 5 5 5 5 5 5 5 5 5 5 5 5 5 5 5 5 5 5 5 5 5 5 5 5 5 5 5 5 5 5 5 3 3 3 3 3 3 3 3 3 3 3 3 3 3 3 3 
CELL_DATA 52
Scalars  Label int 1
LOOKUP_TABLE FreeFempp_table
0
0
0
0
0
0
0
0
0
0
0
0
0
0
0
0
0
0
0
0
0
0
0
0
0
0
0
0
0
0
0
0
0
0
0
0
4
4
4
4
3
3
3
3
2
2
2
2
1
1
1
1

LOOKUP_TABLE FreeFempp_table 5
1.00000000 0.00000000 0.00000000 1.00000000
1.00000000 1.00000000 0.00000000 1.00000000
1.00000000 0.00000000 1.00000000 1.00000000
0.00000000 1.00000000 0.00000000 1.00000000
0.00000000 1.00000000 1.00000000 1.00000000

FIELD FieldData 1
Temperature 1 52 float
2.42748231e-01 2.29830086e-01 7.66630590e-01 1.56379175e+00 3.92353296e-01 7.88823247e-01 7.92719936e+00 4.22872782e+00 6.15096283e+00 8.54064465e+00 6.61841011e+00 6.57871580e+00 4.21607733e+00 2.75828671e+00 7.88139057e+00 6.47243166e+00 7.90607274e-01 2.71563053e-01 1.59640479e+00 2.78533030e+00 8.50095081e+00 4.10979319e+00 2.69130325e+00 1.60866213e+00 4.16150212e-01 2.00159341e-01 2.60121435e-01 5.53751707e+00 1.56218755e+00 2.69941521e+00 2.90308923e-01 7.95996845e-01 4.25953865e-01 4.08307016e-01 2.05450878e-01 2.87678838e-01 2.42748231e-01 2.05450878e-01 2.00159341e-01 2.29830086e-01 7.88139057e+00 2.69130325e+00 7.90607274e-01 2.42748231e-01 7.92719936e+00 8.54064465e+00 8.50095081e+00 7.88139057e+00 2.29830086e-01 7.66630590e-01 2.69941521e+00 7.92719936e+00 
