# vtk DataFile Version 2.0
heat8.vtk, Created by Freefem++ 
ASCII
DATASET UNSTRUCTURED_GRID
POINTS 27 float
0 1 0
0 0.75 0
0.25 1 0
0.5 1 0
0.16666667 0.66666667 0
0 0.5 0
0.33333333 0.83333333 0
1 1 0
0.75 1 0
0.66666667 0.83333333 0
0.25 0.5 0
0.16666667 0.33333333 0
0 0.25 0
0.5 0.5 0
1 0.75 0
0.83333333 0.66666667 0
0.75 0.5 0
0 0 0
0.33333333 0.16666667 0
0.25 0 0
0.66666667 0.16666667 0
1 0.5 0
0.83333333 0.33333333 0
0.5 0 0
0.75 0 0
1 0.25 0
1 0 0

CELLS 52 192
3 0 1 2
3 17 19 12
3 18 19 23
3 20 18 23
3 11 19 18
3 10 18 13
3 26 25 24
3 22 16 20
3 25 22 20
3 25 21 22
3 21 16 22
3 16 21 15
3 9 16 15
3 13 20 16
3 7 8 14
3 15 14 8
3 6 3 2
3 1 4 2
3 13 9 6
3 16 9 13
3 14 15 21
3 15 8 9
3 8 3 9
3 6 9 3
3 11 18 10
3 12 11 5
3 12 19 11
3 20 24 25
3 18 20 13
3 23 24 20
3 5 10 4
3 10 13 6
3 4 10 6
3 2 4 6
3 1 5 4
3 5 11 10
2 0 1
2 1 5
2 5 12
2 12 17
2 7 8
2 8 3
2 3 2
2 2 0
2 26 25
2 25 21
2 21 14
2 14 7
2 17 19
2 19 23
2 23 24
2 24 26

CELL_TYPES 52
5 5 5 5 5 5 5 5 5 5 5 5 5 5 5 5 5 5 5 5 5 5 5 5 5 5 5 5 5 5 5 5 5 5 5 5 3 3 3 3 3 3 3 3 3 3 3 3 3 3 3 3 
CELL_DATA 52
Scalars  Label int 1
LOOKUP_TABLE FreeFempp_table
0
0
0
0
0
0
0
0
0
0
0
0
0
0
0
0
0
0
0
0
0
0
0
0
0
0
0
0
0
0
0
0
0
0
0
0
4
4
4
4
3
3
3
3
2
2
2
2
1
1
1
1

LOOKUP_TABLE FreeFempp_table 5
1.00000000 0.00000000 0.00000000 1.00000000
1.00000000 1.00000000 0.00000000 1.00000000
1.00000000 0.00000000 1.00000000 1.00000000
0.00000000 1.00000000 0.00000000 1.00000000
0.00000000 1.00000000 1.00000000 1.00000000

FIELD FieldData 1
Temperature 1 52 float
1.12703748e-01 1.01646259e-01 4.53312993e-01 1.03899777e+00 1.98380232e-01 4.75072145e-01 6.48551512e+00 3.20689011e+00 4.91801453e+00 7.02821922e+00 5.31709433e+00 5.27865171e+00 3.19626904e+00 1.98388708e+00 6.44209242e+00 5.17498779e+00 4.76853430e-01 1.30276710e-01 1.07622921e+00 2.01170897e+00 6.98977613e+00 3.09260535e+00 1.91660225e+00 1.08478606e+00 2.17641875e-01 8.76177624e-02 1.20291620e-01 4.37531090e+00 1.04149532e+00 1.92114854e+00 1.44903868e-01 4.81984109e-01 2.26862594e-01 2.13175073e-01 9.20287371e-02 1.42595097e-01 1.12703748e-01 9.20287371e-02 8.76177624e-02 1.01646259e-01 6.44209242e+00 1.91660225e+00 4.76853430e-01 1.12703748e-01 6.48551512e+00 7.02821922e+00 6.98977613e+00 6.44209242e+00 1.01646259e-01 4.53312993e-01 1.92114854e+00 6.48551512e+00 
