# vtk DataFile Version 2.0
heat36.vtk, Created by Freefem++ 
ASCII
DATASET UNSTRUCTURED_GRID
POINTS 27 float
0 1 0
0 0.75 0
0.25 1 0
0.5 1 0
0.16666667 0.66666667 0
0 0.5 0
0.33333333 0.83333333 0
1 1 0
0.75 1 0
0.66666667 0.83333333 0
0.25 0.5 0
0.16666667 0.33333333 0
0 0.25 0
0.5 0.5 0
1 0.75 0
0.83333333 0.66666667 0
0.75 0.5 0
0 0 0
0.33333333 0.16666667 0
0.25 0 0
0.66666667 0.16666667 0
1 0.5 0
0.83333333 0.33333333 0
0.5 0 0
0.75 0 0
1 0.25 0
1 0 0

CELLS 52 192
3 0 1 2
3 17 19 12
3 18 19 23
3 20 18 23
3 11 19 18
3 10 18 13
3 26 25 24
3 22 16 20
3 25 22 20
3 25 21 22
3 21 16 22
3 16 21 15
3 9 16 15
3 13 20 16
3 7 8 14
3 15 14 8
3 6 3 2
3 1 4 2
3 13 9 6
3 16 9 13
3 14 15 21
3 15 8 9
3 8 3 9
3 6 9 3
3 11 18 10
3 12 11 5
3 12 19 11
3 20 24 25
3 18 20 13
3 23 24 20
3 5 10 4
3 10 13 6
3 4 10 6
3 2 4 6
3 1 5 4
3 5 11 10
2 0 1
2 1 5
2 5 12
2 12 17
2 7 8
2 8 3
2 3 2
2 2 0
2 26 25
2 25 21
2 21 14
2 14 7
2 17 19
2 19 23
2 23 24
2 24 26

CELL_TYPES 52
5 5 5 5 5 5 5 5 5 5 5 5 5 5 5 5 5 5 5 5 5 5 5 5 5 5 5 5 5 5 5 5 5 5 5 5 3 3 3 3 3 3 3 3 3 3 3 3 3 3 3 3 
CELL_DATA 52
Scalars  Label int 1
LOOKUP_TABLE FreeFempp_table
0
0
0
0
0
0
0
0
0
0
0
0
0
0
0
0
0
0
0
0
0
0
0
0
0
0
0
0
0
0
0
0
0
0
0
0
4
4
4
4
3
3
3
3
2
2
2
2
1
1
1
1

LOOKUP_TABLE FreeFempp_table 5
1.00000000 0.00000000 0.00000000 1.00000000
1.00000000 1.00000000 0.00000000 1.00000000
1.00000000 0.00000000 1.00000000 1.00000000
0.00000000 1.00000000 0.00000000 1.00000000
0.00000000 1.00000000 1.00000000 1.00000000

FIELD FieldData 1
Temperature 1 52 float
6.84181023e+00 6.82851505e+00 9.11534691e+00 1.16220846e+01 7.67350054e+00 9.14556694e+00 2.38549194e+01 1.77790070e+01 2.08789253e+01 2.48697872e+01 2.17698669e+01 2.17348118e+01 1.77651806e+01 1.46730986e+01 2.38129654e+01 2.16403980e+01 9.13524437e+00 6.99059200e+00 1.16262312e+01 1.46943283e+01 2.48347321e+01 1.76707668e+01 1.46311064e+01 1.16574230e+01 7.72693777e+00 6.61134624e+00 6.97914362e+00 1.98640594e+01 1.15988674e+01 1.46438560e+01 7.03830338e+00 9.15170002e+00 7.73568249e+00 7.68803501e+00 6.61700439e+00 7.03569269e+00 6.84181023e+00 6.61700439e+00 6.61134624e+00 6.82851505e+00 2.38129654e+01 1.46311064e+01 9.13524437e+00 6.84181023e+00 2.38549194e+01 2.48697872e+01 2.48347321e+01 2.38129654e+01 6.82851505e+00 9.11534691e+00 1.46438560e+01 2.38549194e+01 
