# vtk DataFile Version 2.0
heat19.vtk, Created by Freefem++ 
ASCII
DATASET UNSTRUCTURED_GRID
POINTS 27 float
0 1 0
0 0.75 0
0.25 1 0
0.5 1 0
0.16666667 0.66666667 0
0 0.5 0
0.33333333 0.83333333 0
1 1 0
0.75 1 0
0.66666667 0.83333333 0
0.25 0.5 0
0.16666667 0.33333333 0
0 0.25 0
0.5 0.5 0
1 0.75 0
0.83333333 0.66666667 0
0.75 0.5 0
0 0 0
0.33333333 0.16666667 0
0.25 0 0
0.66666667 0.16666667 0
1 0.5 0
0.83333333 0.33333333 0
0.5 0 0
0.75 0 0
1 0.25 0
1 0 0

CELLS 52 192
3 0 1 2
3 17 19 12
3 18 19 23
3 20 18 23
3 11 19 18
3 10 18 13
3 26 25 24
3 22 16 20
3 25 22 20
3 25 21 22
3 21 16 22
3 16 21 15
3 9 16 15
3 13 20 16
3 7 8 14
3 15 14 8
3 6 3 2
3 1 4 2
3 13 9 6
3 16 9 13
3 14 15 21
3 15 8 9
3 8 3 9
3 6 9 3
3 11 18 10
3 12 11 5
3 12 19 11
3 20 24 25
3 18 20 13
3 23 24 20
3 5 10 4
3 10 13 6
3 4 10 6
3 2 4 6
3 1 5 4
3 5 11 10
2 0 1
2 1 5
2 5 12
2 12 17
2 7 8
2 8 3
2 3 2
2 2 0
2 26 25
2 25 21
2 21 14
2 14 7
2 17 19
2 19 23
2 23 24
2 24 26

CELL_TYPES 52
5 5 5 5 5 5 5 5 5 5 5 5 5 5 5 5 5 5 5 5 5 5 5 5 5 5 5 5 5 5 5 5 5 5 5 5 3 3 3 3 3 3 3 3 3 3 3 3 3 3 3 3 
CELL_DATA 52
Scalars  Label int 1
LOOKUP_TABLE FreeFempp_table
0
0
0
0
0
0
0
0
0
0
0
0
0
0
0
0
0
0
0
0
0
0
0
0
0
0
0
0
0
0
0
0
0
0
0
0
4
4
4
4
3
3
3
3
2
2
2
2
1
1
1
1

LOOKUP_TABLE FreeFempp_table 5
1.00000000 0.00000000 0.00000000 1.00000000
1.00000000 1.00000000 0.00000000 1.00000000
1.00000000 0.00000000 1.00000000 1.00000000
0.00000000 1.00000000 0.00000000 1.00000000
0.00000000 1.00000000 1.00000000 1.00000000

FIELD FieldData 1
Temperature 1 52 float
1.59432423e+00 1.57932162e+00 2.93590522e+00 4.56752062e+00 2.05452156e+00 2.96144462e+00 1.40291128e+01 9.01347065e+00 1.15924673e+01 1.48645535e+01 1.22855568e+01 1.22458057e+01 8.99826145e+00 6.69158125e+00 1.39817991e+01 1.21399355e+01 2.95890164e+00 1.67774868e+00 4.58547831e+00 6.71612358e+00 1.48248024e+01 8.89239025e+00 6.63323736e+00 4.60846233e+00 2.09370399e+00 1.46639729e+00 1.66479373e+00 1.07570257e+01 4.55387783e+00 6.64666653e+00 1.71126103e+00 2.96850276e+00 2.10371804e+00 2.07113266e+00 1.47275531e+00 1.70830524e+00 1.59432423e+00 1.47275531e+00 1.46639729e+00 1.57932162e+00 1.39817991e+01 6.63323736e+00 2.95890164e+00 1.59432423e+00 1.40291128e+01 1.48645535e+01 1.48248024e+01 1.39817991e+01 1.57932162e+00 2.93590522e+00 6.64666653e+00 1.40291128e+01 
