# vtk DataFile Version 2.0
heat20.vtk, Created by Freefem++ 
ASCII
DATASET UNSTRUCTURED_GRID
POINTS 27 float
0 1 0
0 0.75 0
0.25 1 0
0.5 1 0
0.16666667 0.66666667 0
0 0.5 0
0.33333333 0.83333333 0
1 1 0
0.75 1 0
0.66666667 0.83333333 0
0.25 0.5 0
0.16666667 0.33333333 0
0 0.25 0
0.5 0.5 0
1 0.75 0
0.83333333 0.66666667 0
0.75 0.5 0
0 0 0
0.33333333 0.16666667 0
0.25 0 0
0.66666667 0.16666667 0
1 0.5 0
0.83333333 0.33333333 0
0.5 0 0
0.75 0 0
1 0.25 0
1 0 0

CELLS 52 192
3 0 1 2
3 17 19 12
3 18 19 23
3 20 18 23
3 11 19 18
3 10 18 13
3 26 25 24
3 22 16 20
3 25 22 20
3 25 21 22
3 21 16 22
3 16 21 15
3 9 16 15
3 13 20 16
3 7 8 14
3 15 14 8
3 6 3 2
3 1 4 2
3 13 9 6
3 16 9 13
3 14 15 21
3 15 8 9
3 8 3 9
3 6 9 3
3 11 18 10
3 12 11 5
3 12 19 11
3 20 24 25
3 18 20 13
3 23 24 20
3 5 10 4
3 10 13 6
3 4 10 6
3 2 4 6
3 1 5 4
3 5 11 10
2 0 1
2 1 5
2 5 12
2 12 17
2 7 8
2 8 3
2 3 2
2 2 0
2 26 25
2 25 21
2 21 14
2 14 7
2 17 19
2 19 23
2 23 24
2 24 26

CELL_TYPES 52
5 5 5 5 5 5 5 5 5 5 5 5 5 5 5 5 5 5 5 5 5 5 5 5 5 5 5 5 5 5 5 5 5 5 5 5 3 3 3 3 3 3 3 3 3 3 3 3 3 3 3 3 
CELL_DATA 52
Scalars  Label int 1
LOOKUP_TABLE FreeFempp_table
0
0
0
0
0
0
0
0
0
0
0
0
0
0
0
0
0
0
0
0
0
0
0
0
0
0
0
0
0
0
0
0
0
0
0
0
4
4
4
4
3
3
3
3
2
2
2
2
1
1
1
1

LOOKUP_TABLE FreeFempp_table 5
1.00000000 0.00000000 0.00000000 1.00000000
1.00000000 1.00000000 0.00000000 1.00000000
1.00000000 0.00000000 1.00000000 1.00000000
0.00000000 1.00000000 0.00000000 1.00000000
0.00000000 1.00000000 1.00000000 1.00000000

FIELD FieldData 1
Temperature 1 52 float
1.81823909e+00 1.80327857e+00 3.23851967e+00 4.94618464e+00 2.30933237e+00 3.26446104e+00 1.46664295e+01 9.54639339e+00 1.21771002e+01 1.55194902e+01 1.28887835e+01 1.28492527e+01 9.53118324e+00 7.15251637e+00 1.46193314e+01 1.27439175e+01 3.26132894e+00 1.90710092e+00 4.96297359e+00 7.17683744e+00 1.54799585e+01 9.42584896e+00 7.09528065e+00 4.98675108e+00 2.34981298e+00 1.68180120e+00 1.89419091e+00 1.13240395e+01 4.93164587e+00 7.10881948e+00 1.94188964e+00 3.27146745e+00 2.35976434e+00 2.32584810e+00 1.68814707e+00 1.93894458e+00 1.81823909e+00 1.68814707e+00 1.68180120e+00 1.80327857e+00 1.46193314e+01 7.09528065e+00 3.26132894e+00 1.81823909e+00 1.46664295e+01 1.55194902e+01 1.54799585e+01 1.46193314e+01 1.80327857e+00 3.23851967e+00 7.10881948e+00 1.46664295e+01 
