# vtk DataFile Version 2.0
heat86.vtk, Created by Freefem++ 
ASCII
DATASET UNSTRUCTURED_GRID
POINTS 27 float
0 1 0
0 0.75 0
0.25 1 0
0.5 1 0
0.16666667 0.66666667 0
0 0.5 0
0.33333333 0.83333333 0
1 1 0
0.75 1 0
0.66666667 0.83333333 0
0.25 0.5 0
0.16666667 0.33333333 0
0 0.25 0
0.5 0.5 0
1 0.75 0
0.83333333 0.66666667 0
0.75 0.5 0
0 0 0
0.33333333 0.16666667 0
0.25 0 0
0.66666667 0.16666667 0
1 0.5 0
0.83333333 0.33333333 0
0.5 0 0
0.75 0 0
1 0.25 0
1 0 0

CELLS 52 192
3 0 1 2
3 17 19 12
3 18 19 23
3 20 18 23
3 11 19 18
3 10 18 13
3 26 25 24
3 22 16 20
3 25 22 20
3 25 21 22
3 21 16 22
3 16 21 15
3 9 16 15
3 13 20 16
3 7 8 14
3 15 14 8
3 6 3 2
3 1 4 2
3 13 9 6
3 16 9 13
3 14 15 21
3 15 8 9
3 8 3 9
3 6 9 3
3 11 18 10
3 12 11 5
3 12 19 11
3 20 24 25
3 18 20 13
3 23 24 20
3 5 10 4
3 10 13 6
3 4 10 6
3 2 4 6
3 1 5 4
3 5 11 10
2 0 1
2 1 5
2 5 12
2 12 17
2 7 8
2 8 3
2 3 2
2 2 0
2 26 25
2 25 21
2 21 14
2 14 7
2 17 19
2 19 23
2 23 24
2 24 26

CELL_TYPES 52
5 5 5 5 5 5 5 5 5 5 5 5 5 5 5 5 5 5 5 5 5 5 5 5 5 5 5 5 5 5 5 5 5 5 5 5 3 3 3 3 3 3 3 3 3 3 3 3 3 3 3 3 
CELL_DATA 52
Scalars  Label int 1
LOOKUP_TABLE FreeFempp_table
0
0
0
0
0
0
0
0
0
0
0
0
0
0
0
0
0
0
0
0
0
0
0
0
0
0
0
0
0
0
0
0
0
0
0
0
4
4
4
4
3
3
3
3
2
2
2
2
1
1
1
1

LOOKUP_TABLE FreeFempp_table 5
1.00000000 0.00000000 0.00000000 1.00000000
1.00000000 1.00000000 0.00000000 1.00000000
1.00000000 0.00000000 1.00000000 1.00000000
0.00000000 1.00000000 0.00000000 1.00000000
0.00000000 1.00000000 1.00000000 1.00000000

FIELD FieldData 1
Temperature 1 52 float
2.77683430e+01 2.77597179e+01 3.01496487e+01 3.26589088e+01 2.86629772e+01 3.01760616e+01 4.37985306e+01 3.84966545e+01 4.11871834e+01 4.46857872e+01 4.19952583e+01 4.19725914e+01 3.84877167e+01 3.56107101e+01 4.37713928e+01 4.19104462e+01 3.01625385e+01 2.79276295e+01 3.26527863e+01 3.56244392e+01 4.46631165e+01 3.84255714e+01 3.55912857e+01 3.26817780e+01 2.87132187e+01 2.75204525e+01 2.79202023e+01 4.02999229e+01 3.26350822e+01 3.55995293e+01 2.79734478e+01 3.01800365e+01 2.87188854e+01 2.86723995e+01 2.75241241e+01 2.79717541e+01 2.77683430e+01 2.75241241e+01 2.75204525e+01 2.77597179e+01 4.37713928e+01 3.55912857e+01 3.01625385e+01 2.77683430e+01 4.37985306e+01 4.46857872e+01 4.46631165e+01 4.37713928e+01 2.77597179e+01 3.01496487e+01 3.55995293e+01 4.37985306e+01 
