# vtk DataFile Version 2.0
heat45.vtk, Created by Freefem++ 
ASCII
DATASET UNSTRUCTURED_GRID
POINTS 27 float
0 1 0
0 0.75 0
0.25 1 0
0.5 1 0
0.16666667 0.66666667 0
0 0.5 0
0.33333333 0.83333333 0
1 1 0
0.75 1 0
0.66666667 0.83333333 0
0.25 0.5 0
0.16666667 0.33333333 0
0 0.25 0
0.5 0.5 0
1 0.75 0
0.83333333 0.66666667 0
0.75 0.5 0
0 0 0
0.33333333 0.16666667 0
0.25 0 0
0.66666667 0.16666667 0
1 0.5 0
0.83333333 0.33333333 0
0.5 0 0
0.75 0 0
1 0.25 0
1 0 0

CELLS 52 192
3 0 1 2
3 17 19 12
3 18 19 23
3 20 18 23
3 11 19 18
3 10 18 13
3 26 25 24
3 22 16 20
3 25 22 20
3 25 21 22
3 21 16 22
3 16 21 15
3 9 16 15
3 13 20 16
3 7 8 14
3 15 14 8
3 6 3 2
3 1 4 2
3 13 9 6
3 16 9 13
3 14 15 21
3 15 8 9
3 8 3 9
3 6 9 3
3 11 18 10
3 12 11 5
3 12 19 11
3 20 24 25
3 18 20 13
3 23 24 20
3 5 10 4
3 10 13 6
3 4 10 6
3 2 4 6
3 1 5 4
3 5 11 10
2 0 1
2 1 5
2 5 12
2 12 17
2 7 8
2 8 3
2 3 2
2 2 0
2 26 25
2 25 21
2 21 14
2 14 7
2 17 19
2 19 23
2 23 24
2 24 26

CELL_TYPES 52
5 5 5 5 5 5 5 5 5 5 5 5 5 5 5 5 5 5 5 5 5 5 5 5 5 5 5 5 5 5 5 5 5 5 5 5 3 3 3 3 3 3 3 3 3 3 3 3 3 3 3 3 
CELL_DATA 52
Scalars  Label int 1
LOOKUP_TABLE FreeFempp_table
0
0
0
0
0
0
0
0
0
0
0
0
0
0
0
0
0
0
0
0
0
0
0
0
0
0
0
0
0
0
0
0
0
0
0
0
4
4
4
4
3
3
3
3
2
2
2
2
1
1
1
1

LOOKUP_TABLE FreeFempp_table 5
1.00000000 0.00000000 0.00000000 1.00000000
1.00000000 1.00000000 0.00000000 1.00000000
1.00000000 0.00000000 1.00000000 1.00000000
0.00000000 1.00000000 0.00000000 1.00000000
0.00000000 1.00000000 1.00000000 1.00000000

FIELD FieldData 1
Temperature 1 52 float
1.04234066e+01 1.04110870e+01 1.29118328e+01 1.56069880e+01 1.13435192e+01 1.29427013e+01 2.82972889e+01 2.20907784e+01 2.52512684e+01 2.93346710e+01 2.61741829e+01 2.61416836e+01 2.20779476e+01 1.88445950e+01 2.82583847e+01 2.60537090e+01 1.29302626e+01 1.05876875e+01 1.56071157e+01 1.88642635e+01 2.93021736e+01 2.19899731e+01 1.88088951e+01 1.56397219e+01 1.13996115e+01 1.01684713e+01 1.05770798e+01 2.42138863e+01 1.55817652e+01 1.88207474e+01 1.06381836e+01 1.29483852e+01 1.14077139e+01 1.13569860e+01 1.01737146e+01 1.06357641e+01 1.04234066e+01 1.01737146e+01 1.01684713e+01 1.04110870e+01 2.82583847e+01 1.88088951e+01 1.29302626e+01 1.04234066e+01 2.82972889e+01 2.93346710e+01 2.93021736e+01 2.82583847e+01 1.04110870e+01 1.29118328e+01 1.88207474e+01 2.82972889e+01 
