# vtk DataFile Version 2.0
heat32.vtk, Created by Freefem++ 
ASCII
DATASET UNSTRUCTURED_GRID
POINTS 27 float
0 1 0
0 0.75 0
0.25 1 0
0.5 1 0
0.16666667 0.66666667 0
0 0.5 0
0.33333333 0.83333333 0
1 1 0
0.75 1 0
0.66666667 0.83333333 0
0.25 0.5 0
0.16666667 0.33333333 0
0 0.25 0
0.5 0.5 0
1 0.75 0
0.83333333 0.66666667 0
0.75 0.5 0
0 0 0
0.33333333 0.16666667 0
0.25 0 0
0.66666667 0.16666667 0
1 0.5 0
0.83333333 0.33333333 0
0.5 0 0
0.75 0 0
1 0.25 0
1 0 0

CELLS 52 192
3 0 1 2
3 17 19 12
3 18 19 23
3 20 18 23
3 11 19 18
3 10 18 13
3 26 25 24
3 22 16 20
3 25 22 20
3 25 21 22
3 21 16 22
3 16 21 15
3 9 16 15
3 13 20 16
3 7 8 14
3 15 14 8
3 6 3 2
3 1 4 2
3 13 9 6
3 16 9 13
3 14 15 21
3 15 8 9
3 8 3 9
3 6 9 3
3 11 18 10
3 12 11 5
3 12 19 11
3 20 24 25
3 18 20 13
3 23 24 20
3 5 10 4
3 10 13 6
3 4 10 6
3 2 4 6
3 1 5 4
3 5 11 10
2 0 1
2 1 5
2 5 12
2 12 17
2 7 8
2 8 3
2 3 2
2 2 0
2 26 25
2 25 21
2 21 14
2 14 7
2 17 19
2 19 23
2 23 24
2 24 26

CELL_TYPES 52
5 5 5 5 5 5 5 5 5 5 5 5 5 5 5 5 5 5 5 5 5 5 5 5 5 5 5 5 5 5 5 5 5 5 5 5 3 3 3 3 3 3 3 3 3 3 3 3 3 3 3 3 
CELL_DATA 52
Scalars  Label int 1
LOOKUP_TABLE FreeFempp_table
0
0
0
0
0
0
0
0
0
0
0
0
0
0
0
0
0
0
0
0
0
0
0
0
0
0
0
0
0
0
0
0
0
0
0
0
4
4
4
4
3
3
3
3
2
2
2
2
1
1
1
1

LOOKUP_TABLE FreeFempp_table 5
1.00000000 0.00000000 0.00000000 1.00000000
1.00000000 1.00000000 0.00000000 1.00000000
1.00000000 0.00000000 1.00000000 1.00000000
0.00000000 1.00000000 0.00000000 1.00000000
0.00000000 1.00000000 1.00000000 1.00000000

FIELD FieldData 1
Temperature 1 52 float
5.38241911e+00 5.36866999e+00 7.50754690e+00 9.87908173e+00 6.15407133e+00 7.53710794e+00 2.17238827e+01 1.57838078e+01 1.88179951e+01 2.27156467e+01 1.96814594e+01 1.96452389e+01 1.57695446e+01 1.27906637e+01 2.16805477e+01 1.95479450e+01 7.52813387e+00 5.52064991e+00 9.88558674e+00 1.28126192e+01 2.26794281e+01 1.56722498e+01 1.27453747e+01 9.91563606e+00 6.20542860e+00 5.16855574e+00 5.50881052e+00 1.78262329e+01 9.85728550e+00 1.27585011e+01 5.56625319e+00 7.54345322e+00 6.21447372e+00 6.16910505e+00 5.17440653e+00 5.56355333e+00 5.38241911e+00 5.17440653e+00 5.16855574e+00 5.36866999e+00 2.16805477e+01 1.27453747e+01 7.52813387e+00 5.38241911e+00 2.17238827e+01 2.27156467e+01 2.26794281e+01 2.16805477e+01 5.36866999e+00 7.50754690e+00 1.27585011e+01 2.17238827e+01 
