# vtk DataFile Version 2.0
heat11.vtk, Created by Freefem++ 
ASCII
DATASET UNSTRUCTURED_GRID
POINTS 27 float
0 1 0
0 0.75 0
0.25 1 0
0.5 1 0
0.16666667 0.66666667 0
0 0.5 0
0.33333333 0.83333333 0
1 1 0
0.75 1 0
0.66666667 0.83333333 0
0.25 0.5 0
0.16666667 0.33333333 0
0 0.25 0
0.5 0.5 0
1 0.75 0
0.83333333 0.66666667 0
0.75 0.5 0
0 0 0
0.33333333 0.16666667 0
0.25 0 0
0.66666667 0.16666667 0
1 0.5 0
0.83333333 0.33333333 0
0.5 0 0
0.75 0 0
1 0.25 0
1 0 0

CELLS 52 192
3 0 1 2
3 17 19 12
3 18 19 23
3 20 18 23
3 11 19 18
3 10 18 13
3 26 25 24
3 22 16 20
3 25 22 20
3 25 21 22
3 21 16 22
3 16 21 15
3 9 16 15
3 13 20 16
3 7 8 14
3 15 14 8
3 6 3 2
3 1 4 2
3 13 9 6
3 16 9 13
3 14 15 21
3 15 8 9
3 8 3 9
3 6 9 3
3 11 18 10
3 12 11 5
3 12 19 11
3 20 24 25
3 18 20 13
3 23 24 20
3 5 10 4
3 10 13 6
3 4 10 6
3 2 4 6
3 1 5 4
3 5 11 10
2 0 1
2 1 5
2 5 12
2 12 17
2 7 8
2 8 3
2 3 2
2 2 0
2 26 25
2 25 21
2 21 14
2 14 7
2 17 19
2 19 23
2 23 24
2 24 26

CELL_TYPES 52
5 5 5 5 5 5 5 5 5 5 5 5 5 5 5 5 5 5 5 5 5 5 5 5 5 5 5 5 5 5 5 5 5 5 5 5 3 3 3 3 3 3 3 3 3 3 3 3 3 3 3 3 
CELL_DATA 52
Scalars  Label int 1
LOOKUP_TABLE FreeFempp_table
0
0
0
0
0
0
0
0
0
0
0
0
0
0
0
0
0
0
0
0
0
0
0
0
0
0
0
0
0
0
0
0
0
0
0
0
4
4
4
4
3
3
3
3
2
2
2
2
1
1
1
1

LOOKUP_TABLE FreeFempp_table 5
1.00000000 0.00000000 0.00000000 1.00000000
1.00000000 1.00000000 0.00000000 1.00000000
1.00000000 0.00000000 1.00000000 1.00000000
0.00000000 1.00000000 0.00000000 1.00000000
0.00000000 1.00000000 1.00000000 1.00000000

FIELD FieldData 1
Temperature 1 52 float
3.30587357e-01 3.17028493e-01 9.49704289e-01 1.85092163e+00 5.14750481e-01 9.72169101e-01 8.63728046e+00 4.75060892e+00 6.76718044e+00 9.28242779e+00 7.26585579e+00 7.22581291e+00 4.73725986e+00 3.16519403e+00 8.59073353e+00 7.11883259e+00 9.73728240e-01 3.65473360e-01 1.88142300e+00 3.19188786e+00 9.24238491e+00 4.63027954e+00 3.09879255e+00 1.89530838e+00 5.40639699e-01 2.78528512e-01 3.53540480e-01 6.12203360e+00 1.84749734e+00 3.10818481e+00 3.86169314e-01 9.79400933e-01 5.50609231e-01 5.31051099e-01 2.84130305e-01 3.83431584e-01 3.30587357e-01 2.84130305e-01 2.78528512e-01 3.17028493e-01 8.59073353e+00 3.09879255e+00 9.73728240e-01 3.30587357e-01 8.63728046e+00 9.28242779e+00 9.24238491e+00 8.59073353e+00 3.17028493e-01 9.49704289e-01 3.10818481e+00 8.63728046e+00 
