# vtk DataFile Version 2.0
heat1.vtk, Created by Freefem++ 
ASCII
DATASET UNSTRUCTURED_GRID
POINTS 27 float
0 1 0
0 0.75 0
0.25 1 0
0.5 1 0
0.16666667 0.66666667 0
0 0.5 0
0.33333333 0.83333333 0
1 1 0
0.75 1 0
0.66666667 0.83333333 0
0.25 0.5 0
0.16666667 0.33333333 0
0 0.25 0
0.5 0.5 0
1 0.75 0
0.83333333 0.66666667 0
0.75 0.5 0
0 0 0
0.33333333 0.16666667 0
0.25 0 0
0.66666667 0.16666667 0
1 0.5 0
0.83333333 0.33333333 0
0.5 0 0
0.75 0 0
1 0.25 0
1 0 0

CELLS 52 192
3 0 1 2
3 17 19 12
3 18 19 23
3 20 18 23
3 11 19 18
3 10 18 13
3 26 25 24
3 22 16 20
3 25 22 20
3 25 21 22
3 21 16 22
3 16 21 15
3 9 16 15
3 13 20 16
3 7 8 14
3 15 14 8
3 6 3 2
3 1 4 2
3 13 9 6
3 16 9 13
3 14 15 21
3 15 8 9
3 8 3 9
3 6 9 3
3 11 18 10
3 12 11 5
3 12 19 11
3 20 24 25
3 18 20 13
3 23 24 20
3 5 10 4
3 10 13 6
3 4 10 6
3 2 4 6
3 1 5 4
3 5 11 10
2 0 1
2 1 5
2 5 12
2 12 17
2 7 8
2 8 3
2 3 2
2 2 0
2 26 25
2 25 21
2 21 14
2 14 7
2 17 19
2 19 23
2 23 24
2 24 26

CELL_TYPES 52
5 5 5 5 5 5 5 5 5 5 5 5 5 5 5 5 5 5 5 5 5 5 5 5 5 5 5 5 5 5 5 5 5 5 5 5 3 3 3 3 3 3 3 3 3 3 3 3 3 3 3 3 
CELL_DATA 52
Scalars  Label int 1
LOOKUP_TABLE FreeFempp_table
0
0
0
0
0
0
0
0
0
0
0
0
0
0
0
0
0
0
0
0
0
0
0
0
0
0
0
0
0
0
0
0
0
0
0
0
4
4
4
4
3
3
3
3
2
2
2
2
1
1
1
1

LOOKUP_TABLE FreeFempp_table 5
1.00000000 0.00000000 0.00000000 1.00000000
1.00000000 1.00000000 0.00000000 1.00000000
1.00000000 0.00000000 1.00000000 1.00000000
0.00000000 1.00000000 0.00000000 1.00000000
0.00000000 1.00000000 1.00000000 1.00000000

FIELD FieldData 1
Temperature 1 52 float
-3.11428303e-04 -3.15747195e-04 -6.20718906e-03 -7.88844936e-03 -1.97707675e-03 3.80249531e-03 1.33873641e+00 2.77268201e-01 8.51413190e-01 1.50706220e+00 9.32917178e-01 9.16783571e-01 2.86606729e-01 8.21147338e-02 1.32832491e+00 8.58469248e-01 6.30291062e-04 -2.62742542e-04 2.72067916e-02 1.07586853e-01 1.49092865e+00 2.28292361e-01 4.63916473e-02 2.43259557e-02 -9.15733865e-04 9.24655833e-05 -2.97382765e-04 6.83087468e-01 1.05989201e-03 2.52635442e-02 7.01155222e-04 4.47727321e-03 -2.46059761e-04 -1.21220527e-03 3.19084829e-05 7.06258928e-04 -3.11428303e-04 3.19084829e-05 9.24655833e-05 -3.15747195e-04 1.32832491e+00 4.63916473e-02 6.30291062e-04 -3.11428303e-04 1.33873641e+00 1.50706220e+00 1.49092865e+00 1.32832491e+00 -3.15747195e-04 -6.20718906e-03 2.52635442e-02 1.33873641e+00 
