# vtk DataFile Version 2.0
heat57.vtk, Created by Freefem++ 
ASCII
DATASET UNSTRUCTURED_GRID
POINTS 27 float
0 1 0
0 0.75 0
0.25 1 0
0.5 1 0
0.16666667 0.66666667 0
0 0.5 0
0.33333333 0.83333333 0
1 1 0
0.75 1 0
0.66666667 0.83333333 0
0.25 0.5 0
0.16666667 0.33333333 0
0 0.25 0
0.5 0.5 0
1 0.75 0
0.83333333 0.66666667 0
0.75 0.5 0
0 0 0
0.33333333 0.16666667 0
0.25 0 0
0.66666667 0.16666667 0
1 0.5 0
0.83333333 0.33333333 0
0.5 0 0
0.75 0 0
1 0.25 0
1 0 0

CELLS 52 192
3 0 1 2
3 17 19 12
3 18 19 23
3 20 18 23
3 11 19 18
3 10 18 13
3 26 25 24
3 22 16 20
3 25 22 20
3 25 21 22
3 21 16 22
3 16 21 15
3 9 16 15
3 13 20 16
3 7 8 14
3 15 14 8
3 6 3 2
3 1 4 2
3 13 9 6
3 16 9 13
3 14 15 21
3 15 8 9
3 8 3 9
3 6 9 3
3 11 18 10
3 12 11 5
3 12 19 11
3 20 24 25
3 18 20 13
3 23 24 20
3 5 10 4
3 10 13 6
3 4 10 6
3 2 4 6
3 1 5 4
3 5 11 10
2 0 1
2 1 5
2 5 12
2 12 17
2 7 8
2 8 3
2 3 2
2 2 0
2 26 25
2 25 21
2 21 14
2 14 7
2 17 19
2 19 23
2 23 24
2 24 26

CELL_TYPES 52
5 5 5 5 5 5 5 5 5 5 5 5 5 5 5 5 5 5 5 5 5 5 5 5 5 5 5 5 5 5 5 5 5 5 5 5 3 3 3 3 3 3 3 3 3 3 3 3 3 3 3 3 
CELL_DATA 52
Scalars  Label int 1
LOOKUP_TABLE FreeFempp_table
0
0
0
0
0
0
0
0
0
0
0
0
0
0
0
0
0
0
0
0
0
0
0
0
0
0
0
0
0
0
0
0
0
0
0
0
4
4
4
4
3
3
3
3
2
2
2
2
1
1
1
1

LOOKUP_TABLE FreeFempp_table 5
1.00000000 0.00000000 0.00000000 1.00000000
1.00000000 1.00000000 0.00000000 1.00000000
1.00000000 0.00000000 1.00000000 1.00000000
0.00000000 1.00000000 0.00000000 1.00000000
0.00000000 1.00000000 1.00000000 1.00000000

FIELD FieldData 1
Temperature 1 52 float
1.55360441e+01 1.55249271e+01 1.81247253e+01 2.08911037e+01 1.65007820e+01 1.81551590e+01 3.35551414e+01 2.74398079e+01 3.05488834e+01 3.45778656e+01 3.14687901e+01 3.14394951e+01 2.74282417e+01 2.41808109e+01 3.35200729e+01 3.13597832e+01 1.81413498e+01 1.57080536e+01 2.08878765e+01 2.41985397e+01 3.45485725e+01 2.73485279e+01 2.41515636e+01 2.09206142e+01 1.65572948e+01 1.52687445e+01 1.56984806e+01 2.95261612e+01 2.08650227e+01 2.41622505e+01 1.57592468e+01 1.81602840e+01 1.65646038e+01 1.65129318e+01 1.52734766e+01 1.57570639e+01 1.55360441e+01 1.52734766e+01 1.52687445e+01 1.55249271e+01 3.35200729e+01 2.41515636e+01 1.81413498e+01 1.55360441e+01 3.35551414e+01 3.45778656e+01 3.45485725e+01 3.35200729e+01 1.55249271e+01 1.81247253e+01 2.41622505e+01 3.35551414e+01 
