# vtk DataFile Version 2.0
heat27.vtk, Created by Freefem++ 
ASCII
DATASET UNSTRUCTURED_GRID
POINTS 27 float
0 1 0
0 0.75 0
0.25 1 0
0.5 1 0
0.16666667 0.66666667 0
0 0.5 0
0.33333333 0.83333333 0
1 1 0
0.75 1 0
0.66666667 0.83333333 0
0.25 0.5 0
0.16666667 0.33333333 0
0 0.25 0
0.5 0.5 0
1 0.75 0
0.83333333 0.66666667 0
0.75 0.5 0
0 0 0
0.33333333 0.16666667 0
0.25 0 0
0.66666667 0.16666667 0
1 0.5 0
0.83333333 0.33333333 0
0.5 0 0
0.75 0 0
1 0.25 0
1 0 0

CELLS 52 192
3 0 1 2
3 17 19 12
3 18 19 23
3 20 18 23
3 11 19 18
3 10 18 13
3 26 25 24
3 22 16 20
3 25 22 20
3 25 21 22
3 21 16 22
3 16 21 15
3 9 16 15
3 13 20 16
3 7 8 14
3 15 14 8
3 6 3 2
3 1 4 2
3 13 9 6
3 16 9 13
3 14 15 21
3 15 8 9
3 8 3 9
3 6 9 3
3 11 18 10
3 12 11 5
3 12 19 11
3 20 24 25
3 18 20 13
3 23 24 20
3 5 10 4
3 10 13 6
3 4 10 6
3 2 4 6
3 1 5 4
3 5 11 10
2 0 1
2 1 5
2 5 12
2 12 17
2 7 8
2 8 3
2 3 2
2 2 0
2 26 25
2 25 21
2 21 14
2 14 7
2 17 19
2 19 23
2 23 24
2 24 26

CELL_TYPES 52
5 5 5 5 5 5 5 5 5 5 5 5 5 5 5 5 5 5 5 5 5 5 5 5 5 5 5 5 5 5 5 5 5 5 5 5 3 3 3 3 3 3 3 3 3 3 3 3 3 3 3 3 
CELL_DATA 52
Scalars  Label int 1
LOOKUP_TABLE FreeFempp_table
0
0
0
0
0
0
0
0
0
0
0
0
0
0
0
0
0
0
0
0
0
0
0
0
0
0
0
0
0
0
0
0
0
0
0
0
4
4
4
4
3
3
3
3
2
2
2
2
1
1
1
1

LOOKUP_TABLE FreeFempp_table 5
1.00000000 0.00000000 0.00000000 1.00000000
1.00000000 1.00000000 0.00000000 1.00000000
1.00000000 0.00000000 1.00000000 1.00000000
0.00000000 1.00000000 0.00000000 1.00000000
0.00000000 1.00000000 1.00000000 1.00000000

FIELD FieldData 1
Temperature 1 52 float
3.72443318e+00 3.71011400e+00 5.60732985e+00 7.75413847e+00 4.39892769e+00 5.63568687e+00 1.89104118e+01 1.32266922e+01 1.61354790e+01 1.98587322e+01 1.69499454e+01 1.69122753e+01 1.32119188e+01 1.04299030e+01 1.88653755e+01 1.68114376e+01 5.62881804e+00 3.84557366e+00 7.76423979e+00 1.04527998e+01 1.98210621e+01 1.31110811e+01 1.03800039e+01 7.79228163e+00 4.44669962e+00 3.53741026e+00 3.83324051e+00 1.51871586e+01 7.73472357e+00 1.03935175e+01 3.88758540e+00 5.64230585e+00 4.45613050e+00 4.41460133e+00 3.54350090e+00 3.88477302e+00 3.72443318e+00 3.54350090e+00 3.53741026e+00 3.71011400e+00 1.88653755e+01 1.03800039e+01 5.62881804e+00 3.72443318e+00 1.89104118e+01 1.98587322e+01 1.98210621e+01 1.88653755e+01 3.71011400e+00 5.60732985e+00 1.03935175e+01 1.89104118e+01 
