# vtk DataFile Version 2.0
heat23.vtk, Created by Freefem++ 
ASCII
DATASET UNSTRUCTURED_GRID
POINTS 27 float
0 1 0
0 0.75 0
0.25 1 0
0.5 1 0
0.16666667 0.66666667 0
0 0.5 0
0.33333333 0.83333333 0
1 1 0
0.75 1 0
0.66666667 0.83333333 0
0.25 0.5 0
0.16666667 0.33333333 0
0 0.25 0
0.5 0.5 0
1 0.75 0
0.83333333 0.66666667 0
0.75 0.5 0
0 0 0
0.33333333 0.16666667 0
0.25 0 0
0.66666667 0.16666667 0
1 0.5 0
0.83333333 0.33333333 0
0.5 0 0
0.75 0 0
1 0.25 0
1 0 0

CELLS 52 192
3 0 1 2
3 17 19 12
3 18 19 23
3 20 18 23
3 11 19 18
3 10 18 13
3 26 25 24
3 22 16 20
3 25 22 20
3 25 21 22
3 21 16 22
3 16 21 15
3 9 16 15
3 13 20 16
3 7 8 14
3 15 14 8
3 6 3 2
3 1 4 2
3 13 9 6
3 16 9 13
3 14 15 21
3 15 8 9
3 8 3 9
3 6 9 3
3 11 18 10
3 12 11 5
3 12 19 11
3 20 24 25
3 18 20 13
3 23 24 20
3 5 10 4
3 10 13 6
3 4 10 6
3 2 4 6
3 1 5 4
3 5 11 10
2 0 1
2 1 5
2 5 12
2 12 17
2 7 8
2 8 3
2 3 2
2 2 0
2 26 25
2 25 21
2 21 14
2 14 7
2 17 19
2 19 23
2 23 24
2 24 26

CELL_TYPES 52
5 5 5 5 5 5 5 5 5 5 5 5 5 5 5 5 5 5 5 5 5 5 5 5 5 5 5 5 5 5 5 5 5 5 5 5 3 3 3 3 3 3 3 3 3 3 3 3 3 3 3 3 
CELL_DATA 52
Scalars  Label int 1
LOOKUP_TABLE FreeFempp_table
0
0
0
0
0
0
0
0
0
0
0
0
0
0
0
0
0
0
0
0
0
0
0
0
0
0
0
0
0
0
0
0
0
0
0
0
4
4
4
4
3
3
3
3
2
2
2
2
1
1
1
1

LOOKUP_TABLE FreeFempp_table 5
1.00000000 0.00000000 0.00000000 1.00000000
1.00000000 1.00000000 0.00000000 1.00000000
1.00000000 0.00000000 1.00000000 1.00000000
0.00000000 1.00000000 0.00000000 1.00000000
0.00000000 1.00000000 1.00000000 1.00000000

FIELD FieldData 1
Temperature 1 52 float
2.56679130e+00 2.55205631e+00 4.20410681e+00 6.11936998e+00 3.14357543e+00 4.23118019e+00 1.65309601e+01 1.11359005e+01 1.39025555e+01 1.74304676e+01 1.46638136e+01 1.46250305e+01 1.11208076e+01 8.54882717e+00 1.64846592e+01 1.45215063e+01 4.22634602e+00 2.67073536e+00 6.13300610e+00 8.57251740e+00 1.73916855e+01 1.10172825e+01 8.49484730e+00 6.15886068e+00 3.18754506e+00 2.40673161e+00 2.65803552e+00 1.30030470e+01 6.10247374e+00 8.50850010e+00 2.70896912e+00 4.23802280e+00 3.19728374e+00 3.15975285e+00 2.41299272e+00 2.70607305e+00 2.56679130e+00 2.41299272e+00 2.40673161e+00 2.55205631e+00 1.64846592e+01 8.49484730e+00 4.22634602e+00 2.56679130e+00 1.65309601e+01 1.74304676e+01 1.73916855e+01 1.64846592e+01 2.55205631e+00 4.20410681e+00 8.50850010e+00 1.65309601e+01 
