# vtk DataFile Version 2.0
heat15.vtk, Created by Freefem++ 
ASCII
DATASET UNSTRUCTURED_GRID
POINTS 27 float
0 1 0
0 0.75 0
0.25 1 0
0.5 1 0
0.16666667 0.66666667 0
0 0.5 0
0.33333333 0.83333333 0
1 1 0
0.75 1 0
0.66666667 0.83333333 0
0.25 0.5 0
0.16666667 0.33333333 0
0 0.25 0
0.5 0.5 0
1 0.75 0
0.83333333 0.66666667 0
0.75 0.5 0
0 0 0
0.33333333 0.16666667 0
0.25 0 0
0.66666667 0.16666667 0
1 0.5 0
0.83333333 0.33333333 0
0.5 0 0
0.75 0 0
1 0.25 0
1 0 0

CELLS 52 192
3 0 1 2
3 17 19 12
3 18 19 23
3 20 18 23
3 11 19 18
3 10 18 13
3 26 25 24
3 22 16 20
3 25 22 20
3 25 21 22
3 21 16 22
3 16 21 15
3 9 16 15
3 13 20 16
3 7 8 14
3 15 14 8
3 6 3 2
3 1 4 2
3 13 9 6
3 16 9 13
3 14 15 21
3 15 8 9
3 8 3 9
3 6 9 3
3 11 18 10
3 12 11 5
3 12 19 11
3 20 24 25
3 18 20 13
3 23 24 20
3 5 10 4
3 10 13 6
3 4 10 6
3 2 4 6
3 1 5 4
3 5 11 10
2 0 1
2 1 5
2 5 12
2 12 17
2 7 8
2 8 3
2 3 2
2 2 0
2 26 25
2 25 21
2 21 14
2 14 7
2 17 19
2 19 23
2 23 24
2 24 26

CELL_TYPES 52
5 5 5 5 5 5 5 5 5 5 5 5 5 5 5 5 5 5 5 5 5 5 5 5 5 5 5 5 5 5 5 5 5 5 5 5 3 3 3 3 3 3 3 3 3 3 3 3 3 3 3 3 
CELL_DATA 52
Scalars  Label int 1
LOOKUP_TABLE FreeFempp_table
0
0
0
0
0
0
0
0
0
0
0
0
0
0
0
0
0
0
0
0
0
0
0
0
0
0
0
0
0
0
0
0
0
0
0
0
4
4
4
4
3
3
3
3
2
2
2
2
1
1
1
1

LOOKUP_TABLE FreeFempp_table 5
1.00000000 0.00000000 0.00000000 1.00000000
1.00000000 1.00000000 0.00000000 1.00000000
1.00000000 0.00000000 1.00000000 1.00000000
0.00000000 1.00000000 0.00000000 1.00000000
0.00000000 1.00000000 1.00000000 1.00000000

FIELD FieldData 1
Temperature 1 52 float
8.40074122e-01 8.25235009e-01 1.83719301e+00 3.12964320e+00 1.16651738e+00 1.86108804e+00 1.13985977e+01 6.87457705e+00 9.20937157e+00 1.21511278e+01 9.81633377e+00 9.77598000e+00 6.85973215e+00 4.88283253e+00 1.13509016e+01 9.66857338e+00 1.86087310e+00 8.99967551e-01 3.15303826e+00 4.90834045e+00 1.21107750e+01 6.75232458e+00 4.82009220e+00 3.17219710e+00 1.19975209e+00 7.48952746e-01 8.87088180e-01 8.45684147e+00 3.12030339e+00 4.83246088e+00 9.27676618e-01 1.86831510e+00 1.20992196e+00 1.18332112e+00 7.55198240e-01 9.24733877e-01 8.40074122e-01 7.55198240e-01 7.48952746e-01 8.25235009e-01 1.13509016e+01 4.82009220e+00 1.86087310e+00 8.40074122e-01 1.13985977e+01 1.21511278e+01 1.21107750e+01 1.13509016e+01 8.25235009e-01 1.83719301e+00 4.83246088e+00 1.13985977e+01 
