# vtk DataFile Version 2.0
heat67.vtk, Created by Freefem++ 
ASCII
DATASET UNSTRUCTURED_GRID
POINTS 27 float
0 1 0
0 0.75 0
0.25 1 0
0.5 1 0
0.16666667 0.66666667 0
0 0.5 0
0.33333333 0.83333333 0
1 1 0
0.75 1 0
0.66666667 0.83333333 0
0.25 0.5 0
0.16666667 0.33333333 0
0 0.25 0
0.5 0.5 0
1 0.75 0
0.83333333 0.66666667 0
0.75 0.5 0
0 0 0
0.33333333 0.16666667 0
0.25 0 0
0.66666667 0.16666667 0
1 0.5 0
0.83333333 0.33333333 0
0.5 0 0
0.75 0 0
1 0.25 0
1 0 0

CELLS 52 192
3 0 1 2
3 17 19 12
3 18 19 23
3 20 18 23
3 11 19 18
3 10 18 13
3 26 25 24
3 22 16 20
3 25 22 20
3 25 21 22
3 21 16 22
3 16 21 15
3 9 16 15
3 13 20 16
3 7 8 14
3 15 14 8
3 6 3 2
3 1 4 2
3 13 9 6
3 16 9 13
3 14 15 21
3 15 8 9
3 8 3 9
3 6 9 3
3 11 18 10
3 12 11 5
3 12 19 11
3 20 24 25
3 18 20 13
3 23 24 20
3 5 10 4
3 10 13 6
3 4 10 6
3 2 4 6
3 1 5 4
3 5 11 10
2 0 1
2 1 5
2 5 12
2 12 17
2 7 8
2 8 3
2 3 2
2 2 0
2 26 25
2 25 21
2 21 14
2 14 7
2 17 19
2 19 23
2 23 24
2 24 26

CELL_TYPES 52
5 5 5 5 5 5 5 5 5 5 5 5 5 5 5 5 5 5 5 5 5 5 5 5 5 5 5 5 5 5 5 5 5 5 5 5 3 3 3 3 3 3 3 3 3 3 3 3 3 3 3 3 
CELL_DATA 52
Scalars  Label int 1
LOOKUP_TABLE FreeFempp_table
0
0
0
0
0
0
0
0
0
0
0
0
0
0
0
0
0
0
0
0
0
0
0
0
0
0
0
0
0
0
0
0
0
0
0
0
4
4
4
4
3
3
3
3
2
2
2
2
1
1
1
1

LOOKUP_TABLE FreeFempp_table 5
1.00000000 0.00000000 0.00000000 1.00000000
1.00000000 1.00000000 0.00000000 1.00000000
1.00000000 0.00000000 1.00000000 1.00000000
0.00000000 1.00000000 0.00000000 1.00000000
0.00000000 1.00000000 1.00000000 1.00000000

FIELD FieldData 1
Temperature 1 52 float
1.98578396e+01 1.98476467e+01 2.24243565e+01 2.51486893e+01 2.08180294e+01 2.24537067e+01 3.74403648e+01 3.15449047e+01 3.45396118e+01 3.84266129e+01 3.54319077e+01 3.54050789e+01 3.15343151e+01 2.83717537e+01 3.74082451e+01 3.53318405e+01 2.24395924e+01 2.00289211e+01 2.51438503e+01 2.83879910e+01 3.83997841e+01 3.14610786e+01 2.83466301e+01 2.51757259e+01 2.08731556e+01 1.95917931e+01 2.00201454e+01 3.35533638e+01 2.51229134e+01 2.83564091e+01 2.00790176e+01 2.24584064e+01 2.08798561e+01 2.08291664e+01 1.95961323e+01 2.00770168e+01 1.98578396e+01 1.95961323e+01 1.95917931e+01 1.98476467e+01 3.74082451e+01 2.83466301e+01 2.24395924e+01 1.98578396e+01 3.74403648e+01 3.84266129e+01 3.83997841e+01 3.74082451e+01 1.98476467e+01 2.24243565e+01 2.83564091e+01 3.74403648e+01 
