# vtk DataFile Version 2.0
heat70.vtk, Created by Freefem++ 
ASCII
DATASET UNSTRUCTURED_GRID
POINTS 27 float
0 1 0
0 0.75 0
0.25 1 0
0.5 1 0
0.16666667 0.66666667 0
0 0.5 0
0.33333333 0.83333333 0
1 1 0
0.75 1 0
0.66666667 0.83333333 0
0.25 0.5 0
0.16666667 0.33333333 0
0 0.25 0
0.5 0.5 0
1 0.75 0
0.83333333 0.66666667 0
0.75 0.5 0
0 0 0
0.33333333 0.16666667 0
0.25 0 0
0.66666667 0.16666667 0
1 0.5 0
0.83333333 0.33333333 0
0.5 0 0
0.75 0 0
1 0.25 0
1 0 0

CELLS 52 192
3 0 1 2
3 17 19 12
3 18 19 23
3 20 18 23
3 11 19 18
3 10 18 13
3 26 25 24
3 22 16 20
3 25 22 20
3 25 21 22
3 21 16 22
3 16 21 15
3 9 16 15
3 13 20 16
3 7 8 14
3 15 14 8
3 6 3 2
3 1 4 2
3 13 9 6
3 16 9 13
3 14 15 21
3 15 8 9
3 8 3 9
3 6 9 3
3 11 18 10
3 12 11 5
3 12 19 11
3 20 24 25
3 18 20 13
3 23 24 20
3 5 10 4
3 10 13 6
3 4 10 6
3 2 4 6
3 1 5 4
3 5 11 10
2 0 1
2 1 5
2 5 12
2 12 17
2 7 8
2 8 3
2 3 2
2 2 0
2 26 25
2 25 21
2 21 14
2 14 7
2 17 19
2 19 23
2 23 24
2 24 26

CELL_TYPES 52
5 5 5 5 5 5 5 5 5 5 5 5 5 5 5 5 5 5 5 5 5 5 5 5 5 5 5 5 5 5 5 5 5 5 5 5 3 3 3 3 3 3 3 3 3 3 3 3 3 3 3 3 
CELL_DATA 52
Scalars  Label int 1
LOOKUP_TABLE FreeFempp_table
0
0
0
0
0
0
0
0
0
0
0
0
0
0
0
0
0
0
0
0
0
0
0
0
0
0
0
0
0
0
0
0
0
0
0
0
4
4
4
4
3
3
3
3
2
2
2
2
1
1
1
1

LOOKUP_TABLE FreeFempp_table 5
1.00000000 0.00000000 0.00000000 1.00000000
1.00000000 1.00000000 0.00000000 1.00000000
1.00000000 0.00000000 1.00000000 1.00000000
0.00000000 1.00000000 0.00000000 1.00000000
0.00000000 1.00000000 1.00000000 1.00000000

FIELD FieldData 1
Temperature 1 52 float
2.11422367e+01 2.11323071e+01 2.36893425e+01 2.63889275e+01 2.20960026e+01 2.37182865e+01 3.85280991e+01 3.27150116e+01 3.56672783e+01 3.95006409e+01 3.65483742e+01 3.65222473e+01 3.27047005e+01 2.95789318e+01 3.84968224e+01 3.64508705e+01 2.37041836e+01 2.13121471e+01 2.63837566e+01 2.95947475e+01 3.94745140e+01 3.26333237e+01 2.95548725e+01 2.64152603e+01 2.21505089e+01 2.08779697e+01 2.13035984e+01 3.46947403e+01 2.63633652e+01 2.95643940e+01 2.13617172e+01 2.37228642e+01 2.21570339e+01 2.21068516e+01 2.08821945e+01 2.13597679e+01 2.11422367e+01 2.08821945e+01 2.08779697e+01 2.11323071e+01 3.84968224e+01 2.95548725e+01 2.37041836e+01 2.11422367e+01 3.85280991e+01 3.95006409e+01 3.94745140e+01 3.84968224e+01 2.11323071e+01 2.36893425e+01 2.95643940e+01 3.85280991e+01 
