# vtk DataFile Version 2.0
heat0.vtk, Created by Freefem++ 
ASCII
DATASET UNSTRUCTURED_GRID
POINTS 27 float
0 1 0
0 0.75 0
0.25 1 0
0.5 1 0
0.16666667 0.66666667 0
0 0.5 0
0.33333333 0.83333333 0
1 1 0
0.75 1 0
0.66666667 0.83333333 0
0.25 0.5 0
0.16666667 0.33333333 0
0 0.25 0
0.5 0.5 0
1 0.75 0
0.83333333 0.66666667 0
0.75 0.5 0
0 0 0
0.33333333 0.16666667 0
0.25 0 0
0.66666667 0.16666667 0
1 0.5 0
0.83333333 0.33333333 0
0.5 0 0
0.75 0 0
1 0.25 0
1 0 0

CELLS 52 192
3 0 1 2
3 17 19 12
3 18 19 23
3 20 18 23
3 11 19 18
3 10 18 13
3 26 25 24
3 22 16 20
3 25 22 20
3 25 21 22
3 21 16 22
3 16 21 15
3 9 16 15
3 13 20 16
3 7 8 14
3 15 14 8
3 6 3 2
3 1 4 2
3 13 9 6
3 16 9 13
3 14 15 21
3 15 8 9
3 8 3 9
3 6 9 3
3 11 18 10
3 12 11 5
3 12 19 11
3 20 24 25
3 18 20 13
3 23 24 20
3 5 10 4
3 10 13 6
3 4 10 6
3 2 4 6
3 1 5 4
3 5 11 10
2 0 1
2 1 5
2 5 12
2 12 17
2 7 8
2 8 3
2 3 2
2 2 0
2 26 25
2 25 21
2 21 14
2 14 7
2 17 19
2 19 23
2 23 24
2 24 26

CELL_TYPES 52
5 5 5 5 5 5 5 5 5 5 5 5 5 5 5 5 5 5 5 5 5 5 5 5 5 5 5 5 5 5 5 5 5 5 5 5 3 3 3 3 3 3 3 3 3 3 3 3 3 3 3 3 
CELL_DATA 52
Scalars  Label int 1
LOOKUP_TABLE FreeFempp_table
0
0
0
0
0
0
0
0
0
0
0
0
0
0
0
0
0
0
0
0
0
0
0
0
0
0
0
0
0
0
0
0
0
0
0
0
4
4
4
4
3
3
3
3
2
2
2
2
1
1
1
1

LOOKUP_TABLE FreeFempp_table 5
1.00000000 0.00000000 0.00000000 1.00000000
1.00000000 1.00000000 0.00000000 1.00000000
1.00000000 0.00000000 1.00000000 1.00000000
0.00000000 1.00000000 0.00000000 1.00000000
0.00000000 1.00000000 1.00000000 1.00000000

FIELD FieldData 1
Temperature 1 52 float
-6.21339495e-05 1.52149762e-04 -9.88204847e-04 -1.60901342e-02 7.08830135e-04 2.21309694e-03 6.40177846e-01 6.94294870e-02 3.81665200e-01 7.26674557e-01 4.14438814e-01 4.08071816e-01 8.09109211e-02 4.42719785e-03 6.39410019e-01 3.69618535e-01 7.40241812e-05 -6.27293484e-05 4.25616093e-03 2.22756322e-02 7.20307529e-01 4.24576364e-02 -1.74301788e-02 3.00363218e-03 6.81320147e-04 8.30920035e-05 2.05894743e-04 2.95168549e-01 -1.28613226e-02 -3.64870429e-02 9.18455989e-05 1.48214644e-03 -1.33133639e-04 -2.88727286e-04 -2.42845158e-06 1.75348847e-04 -6.21339495e-05 -2.42845158e-06 8.30920035e-05 1.52149762e-04 6.39410019e-01 -1.74301788e-02 7.40241812e-05 -6.21339495e-05 6.40177846e-01 7.26674557e-01 7.20307529e-01 6.39410019e-01 1.52149762e-04 -9.88204847e-04 -3.64870429e-02 6.40177846e-01 
