# vtk DataFile Version 2.0
heat21.vtk, Created by Freefem++ 
ASCII
DATASET UNSTRUCTURED_GRID
POINTS 27 float
0 1 0
0 0.75 0
0.25 1 0
0.5 1 0
0.16666667 0.66666667 0
0 0.5 0
0.33333333 0.83333333 0
1 1 0
0.75 1 0
0.66666667 0.83333333 0
0.25 0.5 0
0.16666667 0.33333333 0
0 0.25 0
0.5 0.5 0
1 0.75 0
0.83333333 0.66666667 0
0.75 0.5 0
0 0 0
0.33333333 0.16666667 0
0.25 0 0
0.66666667 0.16666667 0
1 0.5 0
0.83333333 0.33333333 0
0.5 0 0
0.75 0 0
1 0.25 0
1 0 0

CELLS 52 192
3 0 1 2
3 17 19 12
3 18 19 23
3 20 18 23
3 11 19 18
3 10 18 13
3 26 25 24
3 22 16 20
3 25 22 20
3 25 21 22
3 21 16 22
3 16 21 15
3 9 16 15
3 13 20 16
3 7 8 14
3 15 14 8
3 6 3 2
3 1 4 2
3 13 9 6
3 16 9 13
3 14 15 21
3 15 8 9
3 8 3 9
3 6 9 3
3 11 18 10
3 12 11 5
3 12 19 11
3 20 24 25
3 18 20 13
3 23 24 20
3 5 10 4
3 10 13 6
3 4 10 6
3 2 4 6
3 1 5 4
3 5 11 10
2 0 1
2 1 5
2 5 12
2 12 17
2 7 8
2 8 3
2 3 2
2 2 0
2 26 25
2 25 21
2 21 14
2 14 7
2 17 19
2 19 23
2 23 24
2 24 26

CELL_TYPES 52
5 5 5 5 5 5 5 5 5 5 5 5 5 5 5 5 5 5 5 5 5 5 5 5 5 5 5 5 5 5 5 5 5 5 5 5 3 3 3 3 3 3 3 3 3 3 3 3 3 3 3 3 
CELL_DATA 52
Scalars  Label int 1
LOOKUP_TABLE FreeFempp_table
0
0
0
0
0
0
0
0
0
0
0
0
0
0
0
0
0
0
0
0
0
0
0
0
0
0
0
0
0
0
0
0
0
0
0
0
4
4
4
4
3
3
3
3
2
2
2
2
1
1
1
1

LOOKUP_TABLE FreeFempp_table 5
1.00000000 0.00000000 0.00000000 1.00000000
1.00000000 1.00000000 0.00000000 1.00000000
1.00000000 0.00000000 1.00000000 1.00000000
0.00000000 1.00000000 0.00000000 1.00000000
0.00000000 1.00000000 1.00000000 1.00000000

FIELD FieldData 1
Temperature 1 52 float
2.05530548e+00 2.04040647e+00 3.55111933e+00 5.33137083e+00 2.57614446e+00 3.57745171e+00 1.52957764e+01 1.00779276e+01 1.27570333e+01 1.61653500e+01 1.34862452e+01 1.34469509e+01 1.00627394e+01 7.61595678e+00 1.52489214e+01 1.33421907e+01 3.57373929e+00 2.14940262e+00 5.34705305e+00 7.64006281e+00 1.61260567e+01 9.95797920e+00 7.55982065e+00 5.37157059e+00 2.61785364e+00 1.91067052e+00 2.13655233e+00 1.18874588e+01 5.31599379e+00 7.57342815e+00 2.18540215e+00 3.58440447e+00 2.62773752e+00 2.59255433e+00 1.91699481e+00 2.18247128e+00 2.05530548e+00 1.91699481e+00 1.91067052e+00 2.04040647e+00 1.52489214e+01 7.55982065e+00 3.57373929e+00 2.05530548e+00 1.52957764e+01 1.61653500e+01 1.61260567e+01 1.52489214e+01 2.04040647e+00 3.55111933e+00 7.57342815e+00 1.52957764e+01 
