# vtk DataFile Version 2.0
heat39.vtk, Created by Freefem++ 
ASCII
DATASET UNSTRUCTURED_GRID
POINTS 27 float
0 1 0
0 0.75 0
0.25 1 0
0.5 1 0
0.16666667 0.66666667 0
0 0.5 0
0.33333333 0.83333333 0
1 1 0
0.75 1 0
0.66666667 0.83333333 0
0.25 0.5 0
0.16666667 0.33333333 0
0 0.25 0
0.5 0.5 0
1 0.75 0
0.83333333 0.66666667 0
0.75 0.5 0
0 0 0
0.33333333 0.16666667 0
0.25 0 0
0.66666667 0.16666667 0
1 0.5 0
0.83333333 0.33333333 0
0.5 0 0
0.75 0 0
1 0.25 0
1 0 0

CELLS 52 192
3 0 1 2
3 17 19 12
3 18 19 23
3 20 18 23
3 11 19 18
3 10 18 13
3 26 25 24
3 22 16 20
3 25 22 20
3 25 21 22
3 21 16 22
3 16 21 15
3 9 16 15
3 13 20 16
3 7 8 14
3 15 14 8
3 6 3 2
3 1 4 2
3 13 9 6
3 16 9 13
3 14 15 21
3 15 8 9
3 8 3 9
3 6 9 3
3 11 18 10
3 12 11 5
3 12 19 11
3 20 24 25
3 18 20 13
3 23 24 20
3 5 10 4
3 10 13 6
3 4 10 6
3 2 4 6
3 1 5 4
3 5 11 10
2 0 1
2 1 5
2 5 12
2 12 17
2 7 8
2 8 3
2 3 2
2 2 0
2 26 25
2 25 21
2 21 14
2 14 7
2 17 19
2 19 23
2 23 24
2 24 26

CELL_TYPES 52
5 5 5 5 5 5 5 5 5 5 5 5 5 5 5 5 5 5 5 5 5 5 5 5 5 5 5 5 5 5 5 5 5 5 5 5 3 3 3 3 3 3 3 3 3 3 3 3 3 3 3 3 
CELL_DATA 52
Scalars  Label int 1
LOOKUP_TABLE FreeFempp_table
0
0
0
0
0
0
0
0
0
0
0
0
0
0
0
0
0
0
0
0
0
0
0
0
0
0
0
0
0
0
0
0
0
0
0
0
4
4
4
4
3
3
3
3
2
2
2
2
1
1
1
1

LOOKUP_TABLE FreeFempp_table 5
1.00000000 0.00000000 0.00000000 1.00000000
1.00000000 1.00000000 0.00000000 1.00000000
1.00000000 0.00000000 1.00000000 1.00000000
0.00000000 1.00000000 0.00000000 1.00000000
0.00000000 1.00000000 1.00000000 1.00000000

FIELD FieldData 1
Temperature 1 52 float
7.99702024e+00 7.98405790e+00 1.03589001e+01 1.29446592e+01 8.86474609e+00 1.03894539e+01 2.53878708e+01 1.92441254e+01 2.23763523e+01 2.64143353e+01 2.32821064e+01 2.32479153e+01 1.92306328e+01 1.60756435e+01 2.53469467e+01 2.31556625e+01 1.03782969e+01 8.15212727e+00 1.29472866e+01 1.60963421e+01 2.63801441e+01 1.91383801e+01 1.60359116e+01 1.29791098e+01 8.91935158e+00 7.75658655e+00 8.14096546e+00 2.13498898e+01 1.29206076e+01 1.60483646e+01 8.20104027e+00 1.03954334e+01 8.92787647e+00 8.87891674e+00 7.76210356e+00 8.19849491e+00 7.99702024e+00 7.76210356e+00 7.75658655e+00 7.98405790e+00 2.53469467e+01 1.60359116e+01 1.03782969e+01 7.99702024e+00 2.53878708e+01 2.64143353e+01 2.63801441e+01 2.53469467e+01 7.98405790e+00 1.03589001e+01 1.60483646e+01 2.53878708e+01 
