# vtk DataFile Version 2.0
heat80.vtk, Created by Freefem++ 
ASCII
DATASET UNSTRUCTURED_GRID
POINTS 27 float
0 1 0
0 0.75 0
0.25 1 0
0.5 1 0
0.16666667 0.66666667 0
0 0.5 0
0.33333333 0.83333333 0
1 1 0
0.75 1 0
0.66666667 0.83333333 0
0.25 0.5 0
0.16666667 0.33333333 0
0 0.25 0
0.5 0.5 0
1 0.75 0
0.83333333 0.66666667 0
0.75 0.5 0
0 0 0
0.33333333 0.16666667 0
0.25 0 0
0.66666667 0.16666667 0
1 0.5 0
0.83333333 0.33333333 0
0.5 0 0
0.75 0 0
1 0.25 0
1 0 0

CELLS 52 192
3 0 1 2
3 17 19 12
3 18 19 23
3 20 18 23
3 11 19 18
3 10 18 13
3 26 25 24
3 22 16 20
3 25 22 20
3 25 21 22
3 21 16 22
3 16 21 15
3 9 16 15
3 13 20 16
3 7 8 14
3 15 14 8
3 6 3 2
3 1 4 2
3 13 9 6
3 16 9 13
3 14 15 21
3 15 8 9
3 8 3 9
3 6 9 3
3 11 18 10
3 12 11 5
3 12 19 11
3 20 24 25
3 18 20 13
3 23 24 20
3 5 10 4
3 10 13 6
3 4 10 6
3 2 4 6
3 1 5 4
3 5 11 10
2 0 1
2 1 5
2 5 12
2 12 17
2 7 8
2 8 3
2 3 2
2 2 0
2 26 25
2 25 21
2 21 14
2 14 7
2 17 19
2 19 23
2 23 24
2 24 26

CELL_TYPES 52
5 5 5 5 5 5 5 5 5 5 5 5 5 5 5 5 5 5 5 5 5 5 5 5 5 5 5 5 5 5 5 5 5 5 5 5 3 3 3 3 3 3 3 3 3 3 3 3 3 3 3 3 
CELL_DATA 52
Scalars  Label int 1
LOOKUP_TABLE FreeFempp_table
0
0
0
0
0
0
0
0
0
0
0
0
0
0
0
0
0
0
0
0
0
0
0
0
0
0
0
0
0
0
0
0
0
0
0
0
4
4
4
4
3
3
3
3
2
2
2
2
1
1
1
1

LOOKUP_TABLE FreeFempp_table 5
1.00000000 0.00000000 0.00000000 1.00000000
1.00000000 1.00000000 0.00000000 1.00000000
1.00000000 0.00000000 1.00000000 1.00000000
0.00000000 1.00000000 0.00000000 1.00000000
0.00000000 1.00000000 1.00000000 1.00000000

FIELD FieldData 1
Temperature 1 52 float
2.53362236e+01 2.53271294e+01 2.77893562e+01 3.03789310e+01 2.62569065e+01 2.78167706e+01 4.19208374e+01 3.64170074e+01 3.92107048e+01 4.28418121e+01 4.00481148e+01 4.00242043e+01 3.64075737e+01 3.34294472e+01 4.18922157e+01 3.99587364e+01 2.78029461e+01 2.55001755e+01 3.03730316e+01 3.34439240e+01 4.28179016e+01 3.63421059e+01 3.34084663e+01 3.04030418e+01 2.63088894e+01 2.50811176e+01 2.54923458e+01 3.82897301e+01 3.03543625e+01 3.34171677e+01 2.55475426e+01 2.78209610e+01 2.63148651e+01 2.62668419e+01 2.50849876e+01 2.55457573e+01 2.53362236e+01 2.50849876e+01 2.50811176e+01 2.53271294e+01 4.18922157e+01 3.34084663e+01 2.78029461e+01 2.53362236e+01 4.19208374e+01 4.28418121e+01 4.28179016e+01 4.18922157e+01 2.53271294e+01 2.77893562e+01 3.34171677e+01 4.19208374e+01 
