# vtk DataFile Version 2.0
heat7.vtk, Created by Freefem++ 
ASCII
DATASET UNSTRUCTURED_GRID
POINTS 27 float
0 1 0
0 0.75 0
0.25 1 0
0.5 1 0
0.16666667 0.66666667 0
0 0.5 0
0.33333333 0.83333333 0
1 1 0
0.75 1 0
0.66666667 0.83333333 0
0.25 0.5 0
0.16666667 0.33333333 0
0 0.25 0
0.5 0.5 0
1 0.75 0
0.83333333 0.66666667 0
0.75 0.5 0
0 0 0
0.33333333 0.16666667 0
0.25 0 0
0.66666667 0.16666667 0
1 0.5 0
0.83333333 0.33333333 0
0.5 0 0
0.75 0 0
1 0.25 0
1 0 0

CELLS 52 192
3 0 1 2
3 17 19 12
3 18 19 23
3 20 18 23
3 11 19 18
3 10 18 13
3 26 25 24
3 22 16 20
3 25 22 20
3 25 21 22
3 21 16 22
3 16 21 15
3 9 16 15
3 13 20 16
3 7 8 14
3 15 14 8
3 6 3 2
3 1 4 2
3 13 9 6
3 16 9 13
3 14 15 21
3 15 8 9
3 8 3 9
3 6 9 3
3 11 18 10
3 12 11 5
3 12 19 11
3 20 24 25
3 18 20 13
3 23 24 20
3 5 10 4
3 10 13 6
3 4 10 6
3 2 4 6
3 1 5 4
3 5 11 10
2 0 1
2 1 5
2 5 12
2 12 17
2 7 8
2 8 3
2 3 2
2 2 0
2 26 25
2 25 21
2 21 14
2 14 7
2 17 19
2 19 23
2 23 24
2 24 26

CELL_TYPES 52
5 5 5 5 5 5 5 5 5 5 5 5 5 5 5 5 5 5 5 5 5 5 5 5 5 5 5 5 5 5 5 5 5 5 5 5 3 3 3 3 3 3 3 3 3 3 3 3 3 3 3 3 
CELL_DATA 52
Scalars  Label int 1
LOOKUP_TABLE FreeFempp_table
0
0
0
0
0
0
0
0
0
0
0
0
0
0
0
0
0
0
0
0
0
0
0
0
0
0
0
0
0
0
0
0
0
0
0
0
4
4
4
4
3
3
3
3
2
2
2
2
1
1
1
1

LOOKUP_TABLE FreeFempp_table 5
1.00000000 0.00000000 0.00000000 1.00000000
1.00000000 1.00000000 0.00000000 1.00000000
1.00000000 0.00000000 1.00000000 1.00000000
0.00000000 1.00000000 0.00000000 1.00000000
0.00000000 1.00000000 1.00000000 1.00000000

FIELD FieldData 1
Temperature 1 52 float
6.89567029e-02 5.91732077e-02 3.25019926e-01 8.05344224e-01 1.26883343e-01 3.46576631e-01 5.75511980e+00 2.71175480e+00 4.30415916e+00 6.25815630e+00 4.66575241e+00 4.62832069e+00 2.70256829e+00 1.62153900e+00 5.71351576e+00 4.52683353e+00 3.48065883e-01 8.16289037e-02 8.45006347e-01 1.64978409e+00 6.22072506e+00 2.60108113e+00 1.55478370e+00 8.51493120e-01 1.43690288e-01 5.14716208e-02 7.26636797e-02 3.80112219e+00 8.10093999e-01 1.55690563e+00 9.41078067e-02 3.53243798e-01 1.52439535e-01 1.40774831e-01 5.52946068e-02 9.20257270e-02 6.89567029e-02 5.52946068e-02 5.14716208e-02 5.91732077e-02 5.71351576e+00 1.55478370e+00 3.48065883e-01 6.89567029e-02 5.75511980e+00 6.25815630e+00 6.22072506e+00 5.71351576e+00 5.91732077e-02 3.25019926e-01 1.55690563e+00 5.75511980e+00 
