# vtk DataFile Version 2.0
heat84.vtk, Created by Freefem++ 
ASCII
DATASET UNSTRUCTURED_GRID
POINTS 27 float
0 1 0
0 0.75 0
0.25 1 0
0.5 1 0
0.16666667 0.66666667 0
0 0.5 0
0.33333333 0.83333333 0
1 1 0
0.75 1 0
0.66666667 0.83333333 0
0.25 0.5 0
0.16666667 0.33333333 0
0 0.25 0
0.5 0.5 0
1 0.75 0
0.83333333 0.66666667 0
0.75 0.5 0
0 0 0
0.33333333 0.16666667 0
0.25 0 0
0.66666667 0.16666667 0
1 0.5 0
0.83333333 0.33333333 0
0.5 0 0
0.75 0 0
1 0.25 0
1 0 0

CELLS 52 192
3 0 1 2
3 17 19 12
3 18 19 23
3 20 18 23
3 11 19 18
3 10 18 13
3 26 25 24
3 22 16 20
3 25 22 20
3 25 21 22
3 21 16 22
3 16 21 15
3 9 16 15
3 13 20 16
3 7 8 14
3 15 14 8
3 6 3 2
3 1 4 2
3 13 9 6
3 16 9 13
3 14 15 21
3 15 8 9
3 8 3 9
3 6 9 3
3 11 18 10
3 12 11 5
3 12 19 11
3 20 24 25
3 18 20 13
3 23 24 20
3 5 10 4
3 10 13 6
3 4 10 6
3 2 4 6
3 1 5 4
3 5 11 10
2 0 1
2 1 5
2 5 12
2 12 17
2 7 8
2 8 3
2 3 2
2 2 0
2 26 25
2 25 21
2 21 14
2 14 7
2 17 19
2 19 23
2 23 24
2 24 26

CELL_TYPES 52
5 5 5 5 5 5 5 5 5 5 5 5 5 5 5 5 5 5 5 5 5 5 5 5 5 5 5 5 5 5 5 5 5 5 5 5 3 3 3 3 3 3 3 3 3 3 3 3 3 3 3 3 
CELL_DATA 52
Scalars  Label int 1
LOOKUP_TABLE FreeFempp_table
0
0
0
0
0
0
0
0
0
0
0
0
0
0
0
0
0
0
0
0
0
0
0
0
0
0
0
0
0
0
0
0
0
0
0
0
4
4
4
4
3
3
3
3
2
2
2
2
1
1
1
1

LOOKUP_TABLE FreeFempp_table 5
1.00000000 0.00000000 0.00000000 1.00000000
1.00000000 1.00000000 0.00000000 1.00000000
1.00000000 0.00000000 1.00000000 1.00000000
0.00000000 1.00000000 0.00000000 1.00000000
0.00000000 1.00000000 1.00000000 1.00000000

FIELD FieldData 1
Temperature 1 52 float
2.69656162e+01 2.69568367e+01 2.93718281e+01 3.19087410e+01 2.78693218e+01 2.93985806e+01 4.31849861e+01 3.78149033e+01 4.05402527e+01 4.40836334e+01 4.13582878e+01 4.13352127e+01 3.78058014e+01 3.48943520e+01 4.31573639e+01 4.12719765e+01 2.93849487e+01 2.71265259e+01 3.19026775e+01 3.49083252e+01 4.40605583e+01 3.77425690e+01 3.48744316e+01 3.19320145e+01 2.79201584e+01 2.67152119e+01 2.71189671e+01 3.96416054e+01 3.18846569e+01 3.48828239e+01 2.71728745e+01 2.94026260e+01 2.79259281e+01 2.78789139e+01 2.67189484e+01 2.71711502e+01 2.69656162e+01 2.67189484e+01 2.67152119e+01 2.69568367e+01 4.31573639e+01 3.48744316e+01 2.93849487e+01 2.69656162e+01 4.31849861e+01 4.40836334e+01 4.40605583e+01 4.31573639e+01 2.69568367e+01 2.93718281e+01 3.48828239e+01 4.31849861e+01 
