# vtk DataFile Version 2.0
heat92.vtk, Created by Freefem++ 
ASCII
DATASET UNSTRUCTURED_GRID
POINTS 27 float
0 1 0
0 0.75 0
0.25 1 0
0.5 1 0
0.16666667 0.66666667 0
0 0.5 0
0.33333333 0.83333333 0
1 1 0
0.75 1 0
0.66666667 0.83333333 0
0.25 0.5 0
0.16666667 0.33333333 0
0 0.25 0
0.5 0.5 0
1 0.75 0
0.83333333 0.66666667 0
0.75 0.5 0
0 0 0
0.33333333 0.16666667 0
0.25 0 0
0.66666667 0.16666667 0
1 0.5 0
0.83333333 0.33333333 0
0.5 0 0
0.75 0 0
1 0.25 0
1 0 0

CELLS 52 192
3 0 1 2
3 17 19 12
3 18 19 23
3 20 18 23
3 11 19 18
3 10 18 13
3 26 25 24
3 22 16 20
3 25 22 20
3 25 21 22
3 21 16 22
3 16 21 15
3 9 16 15
3 13 20 16
3 7 8 14
3 15 14 8
3 6 3 2
3 1 4 2
3 13 9 6
3 16 9 13
3 14 15 21
3 15 8 9
3 8 3 9
3 6 9 3
3 11 18 10
3 12 11 5
3 12 19 11
3 20 24 25
3 18 20 13
3 23 24 20
3 5 10 4
3 10 13 6
3 4 10 6
3 2 4 6
3 1 5 4
3 5 11 10
2 0 1
2 1 5
2 5 12
2 12 17
2 7 8
2 8 3
2 3 2
2 2 0
2 26 25
2 25 21
2 21 14
2 14 7
2 17 19
2 19 23
2 23 24
2 24 26

CELL_TYPES 52
5 5 5 5 5 5 5 5 5 5 5 5 5 5 5 5 5 5 5 5 5 5 5 5 5 5 5 5 5 5 5 5 5 5 5 5 3 3 3 3 3 3 3 3 3 3 3 3 3 3 3 3 
CELL_DATA 52
Scalars  Label int 1
LOOKUP_TABLE FreeFempp_table
0
0
0
0
0
0
0
0
0
0
0
0
0
0
0
0
0
0
0
0
0
0
0
0
0
0
0
0
0
0
0
0
0
0
0
0
4
4
4
4
3
3
3
3
2
2
2
2
1
1
1
1

LOOKUP_TABLE FreeFempp_table 5
1.00000000 0.00000000 0.00000000 1.00000000
1.00000000 1.00000000 0.00000000 1.00000000
1.00000000 0.00000000 1.00000000 1.00000000
0.00000000 1.00000000 0.00000000 1.00000000
0.00000000 1.00000000 1.00000000 1.00000000

FIELD FieldData 1
Temperature 1 52 float
3.01251526e+01 3.01169701e+01 3.24272804e+01 3.48496132e+01 3.09907475e+01 3.24526634e+01 4.55688171e+01 4.04749451e+01 4.30594025e+01 4.64213257e+01 4.38368683e+01 4.38153687e+01 4.04664688e+01 3.76959534e+01 4.55430870e+01 4.37563858e+01 3.24395103e+01 3.02792454e+01 3.48433914e+01 3.77089767e+01 4.63998260e+01 4.04074860e+01 3.76779060e+01 3.48713036e+01 3.10391464e+01 2.98853035e+01 3.02722015e+01 4.22068939e+01 3.48265953e+01 3.76857185e+01 3.03234158e+01 3.24564323e+01 3.10445232e+01 3.09996872e+01 2.98887863e+01 3.03218098e+01 3.01251526e+01 2.98887863e+01 2.98853035e+01 3.01169701e+01 4.55430870e+01 3.76779060e+01 3.24395103e+01 3.01251526e+01 4.55688171e+01 4.64213257e+01 4.63998260e+01 4.55430870e+01 3.01169701e+01 3.24272804e+01 3.76857185e+01 4.55688171e+01 
