# vtk DataFile Version 2.0
heat54.vtk, Created by Freefem++ 
ASCII
DATASET UNSTRUCTURED_GRID
POINTS 27 float
0 1 0
0 0.75 0
0.25 1 0
0.5 1 0
0.16666667 0.66666667 0
0 0.5 0
0.33333333 0.83333333 0
1 1 0
0.75 1 0
0.66666667 0.83333333 0
0.25 0.5 0
0.16666667 0.33333333 0
0 0.25 0
0.5 0.5 0
1 0.75 0
0.83333333 0.66666667 0
0.75 0.5 0
0 0 0
0.33333333 0.16666667 0
0.25 0 0
0.66666667 0.16666667 0
1 0.5 0
0.83333333 0.33333333 0
0.5 0 0
0.75 0 0
1 0.25 0
1 0 0

CELLS 52 192
3 0 1 2
3 17 19 12
3 18 19 23
3 20 18 23
3 11 19 18
3 10 18 13
3 26 25 24
3 22 16 20
3 25 22 20
3 25 21 22
3 21 16 22
3 16 21 15
3 9 16 15
3 13 20 16
3 7 8 14
3 15 14 8
3 6 3 2
3 1 4 2
3 13 9 6
3 16 9 13
3 14 15 21
3 15 8 9
3 8 3 9
3 6 9 3
3 11 18 10
3 12 11 5
3 12 19 11
3 20 24 25
3 18 20 13
3 23 24 20
3 5 10 4
3 10 13 6
3 4 10 6
3 2 4 6
3 1 5 4
3 5 11 10
2 0 1
2 1 5
2 5 12
2 12 17
2 7 8
2 8 3
2 3 2
2 2 0
2 26 25
2 25 21
2 21 14
2 14 7
2 17 19
2 19 23
2 23 24
2 24 26

CELL_TYPES 52
5 5 5 5 5 5 5 5 5 5 5 5 5 5 5 5 5 5 5 5 5 5 5 5 5 5 5 5 5 5 5 5 5 5 5 5 3 3 3 3 3 3 3 3 3 3 3 3 3 3 3 3 
CELL_DATA 52
Scalars  Label int 1
LOOKUP_TABLE FreeFempp_table
0
0
0
0
0
0
0
0
0
0
0
0
0
0
0
0
0
0
0
0
0
0
0
0
0
0
0
0
0
0
0
0
0
0
0
0
4
4
4
4
3
3
3
3
2
2
2
2
1
1
1
1

LOOKUP_TABLE FreeFempp_table 5
1.00000000 0.00000000 0.00000000 1.00000000
1.00000000 1.00000000 0.00000000 1.00000000
1.00000000 0.00000000 1.00000000 1.00000000
0.00000000 1.00000000 0.00000000 1.00000000
0.00000000 1.00000000 1.00000000 1.00000000

FIELD FieldData 1
Temperature 1 52 float
1.42405605e+01 1.42291527e+01 1.68196278e+01 1.95830631e+01 1.52002335e+01 1.68502769e+01 3.23055420e+01 2.61459694e+01 2.92785683e+01 3.33355408e+01 3.02029438e+01 3.01728725e+01 2.61340961e+01 2.28759270e+01 3.22695389e+01 3.00911388e+01 1.68366890e+01 1.44117136e+01 1.95805073e+01 2.28941231e+01 3.33054695e+01 2.60523624e+01 2.28452396e+01 1.96133537e+01 1.52568970e+01 1.39746666e+01 1.44018908e+01 2.82485676e+01 1.95570488e+01 2.28562088e+01 1.44629793e+01 1.68555374e+01 1.52643986e+01 1.52127018e+01 1.39795218e+01 1.44607401e+01 1.42405605e+01 1.39795218e+01 1.39746666e+01 1.42291527e+01 3.22695389e+01 2.28452396e+01 1.68366890e+01 1.42405605e+01 3.23055420e+01 3.33355408e+01 3.33054695e+01 3.22695389e+01 1.42291527e+01 1.68196278e+01 2.28562088e+01 3.23055420e+01 
