# vtk DataFile Version 2.0
heat53.vtk, Created by Freefem++ 
ASCII
DATASET UNSTRUCTURED_GRID
POINTS 27 float
0 1 0
0 0.75 0
0.25 1 0
0.5 1 0
0.16666667 0.66666667 0
0 0.5 0
0.33333333 0.83333333 0
1 1 0
0.75 1 0
0.66666667 0.83333333 0
0.25 0.5 0
0.16666667 0.33333333 0
0 0.25 0
0.5 0.5 0
1 0.75 0
0.83333333 0.66666667 0
0.75 0.5 0
0 0 0
0.33333333 0.16666667 0
0.25 0 0
0.66666667 0.16666667 0
1 0.5 0
0.83333333 0.33333333 0
0.5 0 0
0.75 0 0
1 0.25 0
1 0 0

CELLS 52 192
3 0 1 2
3 17 19 12
3 18 19 23
3 20 18 23
3 11 19 18
3 10 18 13
3 26 25 24
3 22 16 20
3 25 22 20
3 25 21 22
3 21 16 22
3 16 21 15
3 9 16 15
3 13 20 16
3 7 8 14
3 15 14 8
3 6 3 2
3 1 4 2
3 13 9 6
3 16 9 13
3 14 15 21
3 15 8 9
3 8 3 9
3 6 9 3
3 11 18 10
3 12 11 5
3 12 19 11
3 20 24 25
3 18 20 13
3 23 24 20
3 5 10 4
3 10 13 6
3 4 10 6
3 2 4 6
3 1 5 4
3 5 11 10
2 0 1
2 1 5
2 5 12
2 12 17
2 7 8
2 8 3
2 3 2
2 2 0
2 26 25
2 25 21
2 21 14
2 14 7
2 17 19
2 19 23
2 23 24
2 24 26

CELL_TYPES 52
5 5 5 5 5 5 5 5 5 5 5 5 5 5 5 5 5 5 5 5 5 5 5 5 5 5 5 5 5 5 5 5 5 5 5 5 3 3 3 3 3 3 3 3 3 3 3 3 3 3 3 3 
CELL_DATA 52
Scalars  Label int 1
LOOKUP_TABLE FreeFempp_table
0
0
0
0
0
0
0
0
0
0
0
0
0
0
0
0
0
0
0
0
0
0
0
0
0
0
0
0
0
0
0
0
0
0
0
0
4
4
4
4
3
3
3
3
2
2
2
2
1
1
1
1

LOOKUP_TABLE FreeFempp_table 5
1.00000000 0.00000000 0.00000000 1.00000000
1.00000000 1.00000000 0.00000000 1.00000000
1.00000000 0.00000000 1.00000000 1.00000000
0.00000000 1.00000000 0.00000000 1.00000000
0.00000000 1.00000000 1.00000000 1.00000000

FIELD FieldData 1
Temperature 1 52 float
1.38102684e+01 1.37987623e+01 1.63840961e+01 1.91445980e+01 1.47674503e+01 1.64148026e+01 3.18797836e+01 2.57082520e+01 2.88473072e+01 3.29117393e+01 2.97726860e+01 2.97423534e+01 2.56962757e+01 2.24363918e+01 3.18434677e+01 2.96599388e+01 1.64013042e+01 1.39809942e+01 1.91422882e+01 2.24547482e+01 3.28814049e+01 2.56138611e+01 2.24052010e+01 1.91751537e+01 1.48241301e+01 1.35450649e+01 1.39710865e+01 2.78153496e+01 1.91186237e+01 2.24162674e+01 1.40322523e+01 1.64201088e+01 1.48316965e+01 1.47800255e+01 1.35499620e+01 1.40299931e+01 1.38102684e+01 1.35499620e+01 1.35450649e+01 1.37987623e+01 3.18434677e+01 2.24052010e+01 1.64013042e+01 1.38102684e+01 3.18797836e+01 3.29117393e+01 3.28814049e+01 3.18434677e+01 1.37987623e+01 1.63840961e+01 2.24162674e+01 3.18797836e+01 
